Generated by Psi4
        SP                           UHF                     DEF2-MSVP
Number of atoms                            I               26
Charge                                     I               -1
Multiplicity                               I                1
Number of electrons                        I               98
Number of alpha electrons                  I               49
Number of beta electrons                   I               49
Number of basis functions                  I              221
Number of independent functions            I              221
Atomic numbers                             I   N=          26
           6           6           6           6           6           6
           6           8           1           1           1           1
           1           1           1           1           6           6
           6           8           8           1           1           1
           1           1
Nuclear charges                            R   N=          26
  6.00000000e+00  6.00000000e+00  6.00000000e+00  6.00000000e+00  6.00000000e+00
  6.00000000e+00  6.00000000e+00  8.00000000e+00  1.00000000e+00  1.00000000e+00
  1.00000000e+00  1.00000000e+00  1.00000000e+00  1.00000000e+00  1.00000000e+00
  1.00000000e+00  6.00000000e+00  6.00000000e+00  6.00000000e+00  8.00000000e+00
  8.00000000e+00  1.00000000e+00  1.00000000e+00  1.00000000e+00  1.00000000e+00
  1.00000000e+00
Current cartesian coordinates              R   N=          78
  1.69325348e+00 -7.93207628e+00 -1.65904620e+00  1.83876239e+00 -7.11432757e-01
 -1.50975783e+00  3.91935085e+00 -2.78685474e-01 -3.57714542e-02  1.11310755e+00
 -3.16807672e+00 -1.98974827e+00  2.49638708e+00 -5.21276039e+00 -1.04110575e+00
  5.30829955e+00 -2.23266229e+00  9.10981335e-01  4.60910089e+00 -4.70631379e+00
  4.21542268e-01  4.73949199e+00  2.08347218e+00  4.70675147e-01  8.22089732e-01
  8.55150201e-01 -2.31856061e+00 -5.30954174e-01 -3.53090414e+00 -3.14059148e+00
  6.96747909e+00 -1.86416569e+00  2.03914783e+00  6.21158864e+00  2.09858999e+00
  1.52892178e+00  3.16346040e+00 -9.26055375e+00 -1.09779754e+00  1.45703771e+00
 -8.04357012e+00 -3.69995041e+00  5.72592903e+00 -6.24077140e+00  1.15097655e+00
 -1.05108171e-01 -8.42958259e+00 -7.42874845e-01 -4.61654206e+00  2.20630438e+00
 -1.51044748e-01 -5.83163596e+00  2.96030510e+00 -2.66060104e+00 -4.53150438e+00
  4.35303326e+00  1.74057110e+00 -3.83986462e+00  3.91461680e+00  3.89674861e+00
 -5.19479825e+00  6.48842378e+00  1.11129230e+00 -5.78061335e+00  7.19089920e-01
  6.84214200e-01 -2.74949265e+00  1.39561187e+00 -4.17496132e-01 -7.46624905e+00
  4.16406065e+00 -2.29966335e+00 -6.48822130e+00  1.25855004e+00 -3.65754685e+00
 -4.48352424e+00  4.00515358e+00 -3.84881548e+00
Integer atomic weights                     I   N=          26
          12          12          12          12          12          12
          12          16           1           1           1           1
           1           1           1           1          12          12
          12          16          16           1           1           1
           1           1
Real atomic weights                        R   N=          26
  1.20000000e+01  1.20000000e+01  1.20000000e+01  1.20000000e+01  1.20000000e+01
  1.20000000e+01  1.20000000e+01  1.59949146e+01  1.00782503e+00  1.00782503e+00
  1.00782503e+00  1.00782503e+00  1.00782503e+00  1.00782503e+00  1.00782503e+00
  1.00782503e+00  1.20000000e+01  1.20000000e+01  1.20000000e+01  1.59949146e+01
  1.59949146e+01  1.00782503e+00  1.00782503e+00  1.00782503e+00  1.00782503e+00
  1.00782503e+00
Number of primitive shells                 I              221
Number of contracted shells                I              117
Pure/Cartesian d shells                    I                0
Pure/Cartesian f shells                    I                0
Highest angular momentum                   I                2
Largest degree of contraction              I                5
Shell types                                I   N=         117
           0           0           0           0           1           1
          -2           0           0           0           0           1
           1          -2           0           0           0           0
           1           1          -2           0           0           0
           0           1           1          -2           0           0
           0           0           1           1          -2           0
           0           0           0           1           1          -2
           0           0           0           0           1           1
          -2           0           0           0           0           1
           1          -2           0           0           0           0
           0           0           0           0           0           0
           0           0           0           0           0           0
           0           0           0           0           1           1
          -2           0           0           0           0           1
           1          -2           0           0           0           0
           1           1          -2           0           0           0
           0           1           1          -2           0           0
           0           0           1           1          -2           0
           0           0           0           0           0           0
           0           0           0
Number of primitives per shell             I   N=         117
           5           1           1           1           3           1
           1           5           1           1           1           3
           1           1           5           1           1           1
           3           1           1           5           1           1
           1           3           1           1           5           1
           1           1           3           1           1           5
           1           1           1           3           1           1
           5           1           1           1           3           1
           1           5           1           1           1           3
           1           1           3           1           3           1
           3           1           3           1           3           1
           3           1           3           1           3           1
           5           1           1           1           3           1
           1           5           1           1           1           3
           1           1           5           1           1           1
           3           1           1           5           1           1
           1           3           1           1           5           1
           1           1           3           1           1           3
           1           3           1           3           1           3
           1           3           1
Shell to atom map                          I   N=         117
           1           1           1           1           1           1
           1           2           2           2           2           2
           2           2           3           3           3           3
           3           3           3           4           4           4
           4           4           4           4           5           5
           5           5           5           5           5           6
           6           6           6           6           6           6
           7           7           7           7           7           7
           7           8           8           8           8           8
           8           8           9           9          10          10
          11          11          12          12          13          13
          14          14          15          15          16          16
          17          17          17          17          17          17
          17          18          18          18          18          18
          18          18          19          19          19          19
          19          19          19          20          20          20
          20          20          20          20          21          21
          21          21          21          21          21          22
          22          23          23          24          24          25
          25          26          26
Primitive exponents                        R   N=         221
  3.62386130e+03  5.44046210e+02  1.23743380e+02  3.47632090e+01  1.09333330e+01
  3.57447650e+00  5.74832450e-01  1.73036400e-01  9.44328190e+00  2.00179860e+00
  5.46297180e-01  1.52026840e-01  8.00000000e-01  3.62386130e+03  5.44046210e+02
  1.23743380e+02  3.47632090e+01  1.09333330e+01  3.57447650e+00  5.74832450e-01
  1.73036400e-01  9.44328190e+00  2.00179860e+00  5.46297180e-01  1.52026840e-01
  8.00000000e-01  3.62386130e+03  5.44046210e+02  1.23743380e+02  3.47632090e+01
  1.09333330e+01  3.57447650e+00  5.74832450e-01  1.73036400e-01  9.44328190e+00
  2.00179860e+00  5.46297180e-01  1.52026840e-01  8.00000000e-01  3.62386130e+03
  5.44046210e+02  1.23743380e+02  3.47632090e+01  1.09333330e+01  3.57447650e+00
  5.74832450e-01  1.73036400e-01  9.44328190e+00  2.00179860e+00  5.46297180e-01
  1.52026840e-01  8.00000000e-01  3.62386130e+03  5.44046210e+02  1.23743380e+02
  3.47632090e+01  1.09333330e+01  3.57447650e+00  5.74832450e-01  1.73036400e-01
  9.44328190e+00  2.00179860e+00  5.46297180e-01  1.52026840e-01  8.00000000e-01
  3.62386130e+03  5.44046210e+02  1.23743380e+02  3.47632090e+01  1.09333330e+01
  3.57447650e+00  5.74832450e-01  1.73036400e-01  9.44328190e+00  2.00179860e+00
  5.46297180e-01  1.52026840e-01  8.00000000e-01  3.62386130e+03  5.44046210e+02
  1.23743380e+02  3.47632090e+01  1.09333330e+01  3.57447650e+00  5.74832450e-01
  1.73036400e-01  9.44328190e+00  2.00179860e+00  5.46297180e-01  1.52026840e-01
  8.00000000e-01  6.77337470e+03  1.01679700e+03  2.31267380e+02  6.50084540e+01
  2.04998080e+01  6.71606640e+00  1.14715720e+00  3.34232510e-01  1.76942640e+01
  3.85360270e+00  1.04674650e+00  2.75860430e-01  8.00000000e-01  1.87354104e+01
  2.82565040e+00  6.40134700e-01  1.75607460e-01  1.87354104e+01  2.82565040e+00
  6.40134700e-01  1.75607460e-01  1.87354104e+01  2.82565040e+00  6.40134700e-01
  1.75607460e-01  1.87354104e+01  2.82565040e+00  6.40134700e-01  1.75607460e-01
  1.87354104e+01  2.82565040e+00  6.40134700e-01  1.75607460e-01  1.87354104e+01
  2.82565040e+00  6.40134700e-01  1.75607460e-01  1.87354104e+01  2.82565040e+00
  6.40134700e-01  1.75607460e-01  1.87354104e+01  2.82565040e+00  6.40134700e-01
  1.75607460e-01  3.62386130e+03  5.44046210e+02  1.23743380e+02  3.47632090e+01
  1.09333330e+01  3.57447650e+00  5.74832450e-01  1.73036400e-01  9.44328190e+00
  2.00179860e+00  5.46297180e-01  1.52026840e-01  8.00000000e-01  3.62386130e+03
  5.44046210e+02  1.23743380e+02  3.47632090e+01  1.09333330e+01  3.57447650e+00
  5.74832450e-01  1.73036400e-01  9.44328190e+00  2.00179860e+00  5.46297180e-01
  1.52026840e-01  8.00000000e-01  3.62386130e+03  5.44046210e+02  1.23743380e+02
  3.47632090e+01  1.09333330e+01  3.57447650e+00  5.74832450e-01  1.73036400e-01
  9.44328190e+00  2.00179860e+00  5.46297180e-01  1.52026840e-01  8.00000000e-01
  6.77337470e+03  1.01679700e+03  2.31267380e+02  6.50084540e+01  2.04998080e+01
  6.71606640e+00  1.14715720e+00  3.34232510e-01  1.76942640e+01  3.85360270e+00
  1.04674650e+00  2.75860430e-01  8.00000000e-01  6.77337470e+03  1.01679700e+03
  2.31267380e+02  6.50084540e+01  2.04998080e+01  6.71606640e+00  1.14715720e+00
  3.34232510e-01  1.76942640e+01  3.85360270e+00  1.04674650e+00  2.75860430e-01
  8.00000000e-01  1.87354104e+01  2.82565040e+00  6.40134700e-01  1.75607460e-01
  1.87354104e+01  2.82565040e+00  6.40134700e-01  1.75607460e-01  1.87354104e+01
  2.82565040e+00  6.40134700e-01  1.75607460e-01  1.87354104e+01  2.82565040e+00
  6.40134700e-01  1.75607460e-01  1.87354104e+01  2.82565040e+00  6.40134700e-01
  1.75607460e-01
Contraction coefficients                   R   N=         221
  2.26333124e-03  1.73452633e-02  8.60412011e-02  3.02222721e-01  6.89843648e-01
  1.00000000e+00  1.00000000e+00  1.00000000e+00  5.70590790e-02  3.13458733e-01
  7.59988164e-01  1.00000000e+00  1.00000000e+00  2.26333124e-03  1.73452633e-02
  8.60412011e-02  3.02222721e-01  6.89843648e-01  1.00000000e+00  1.00000000e+00
  1.00000000e+00  5.70590790e-02  3.13458733e-01  7.59988164e-01  1.00000000e+00
  1.00000000e+00  2.26333124e-03  1.73452633e-02  8.60412011e-02  3.02222721e-01
  6.89843648e-01  1.00000000e+00  1.00000000e+00  1.00000000e+00  5.70590790e-02
  3.13458733e-01  7.59988164e-01  1.00000000e+00  1.00000000e+00  2.26333124e-03
  1.73452633e-02  8.60412011e-02  3.02222721e-01  6.89843648e-01  1.00000000e+00
  1.00000000e+00  1.00000000e+00  5.70590790e-02  3.13458733e-01  7.59988164e-01
  1.00000000e+00  1.00000000e+00  2.26333124e-03  1.73452633e-02  8.60412011e-02
  3.02222721e-01  6.89843648e-01  1.00000000e+00  1.00000000e+00  1.00000000e+00
  5.70590790e-02  3.13458733e-01  7.59988164e-01  1.00000000e+00  1.00000000e+00
  2.26333124e-03  1.73452633e-02  8.60412011e-02  3.02222721e-01  6.89843648e-01
  1.00000000e+00  1.00000000e+00  1.00000000e+00  5.70590790e-02  3.13458733e-01
  7.59988164e-01  1.00000000e+00  1.00000000e+00  2.26333124e-03  1.73452633e-02
  8.60412011e-02  3.02222721e-01  6.89843648e-01  1.00000000e+00  1.00000000e+00
  1.00000000e+00  5.70590790e-02  3.13458733e-01  7.59988164e-01  1.00000000e+00
  1.00000000e+00  2.18470467e-03  1.67609392e-02  8.35437088e-02  2.97707247e-01
  6.95621078e-01  1.00000000e+00  1.00000000e+00  1.00000000e+00  6.27665555e-02
  3.33746549e-01  7.40926208e-01  1.00000000e+00  1.00000000e+00  3.34854847e-02
  2.34721870e-01  8.13770283e-01  1.00000000e+00  3.34854847e-02  2.34721870e-01
  8.13770283e-01  1.00000000e+00  3.34854847e-02  2.34721870e-01  8.13770283e-01
  1.00000000e+00  3.34854847e-02  2.34721870e-01  8.13770283e-01  1.00000000e+00
  3.34854847e-02  2.34721870e-01  8.13770283e-01  1.00000000e+00  3.34854847e-02
  2.34721870e-01  8.13770283e-01  1.00000000e+00  3.34854847e-02  2.34721870e-01
  8.13770283e-01  1.00000000e+00  3.34854847e-02  2.34721870e-01  8.13770283e-01
  1.00000000e+00  2.26333124e-03  1.73452633e-02  8.60412011e-02  3.02222721e-01
  6.89843648e-01  1.00000000e+00  1.00000000e+00  1.00000000e+00  5.70590790e-02
  3.13458733e-01  7.59988164e-01  1.00000000e+00  1.00000000e+00  2.26333124e-03
  1.73452633e-02  8.60412011e-02  3.02222721e-01  6.89843648e-01  1.00000000e+00
  1.00000000e+00  1.00000000e+00  5.70590790e-02  3.13458733e-01  7.59988164e-01
  1.00000000e+00  1.00000000e+00  2.26333124e-03  1.73452633e-02  8.60412011e-02
  3.02222721e-01  6.89843648e-01  1.00000000e+00  1.00000000e+00  1.00000000e+00
  5.70590790e-02  3.13458733e-01  7.59988164e-01  1.00000000e+00  1.00000000e+00
  2.18470467e-03  1.67609392e-02  8.35437088e-02  2.97707247e-01  6.95621078e-01
  1.00000000e+00  1.00000000e+00  1.00000000e+00  6.27665555e-02  3.33746549e-01
  7.40926208e-01  1.00000000e+00  1.00000000e+00  2.18470467e-03  1.67609392e-02
  8.35437088e-02  2.97707247e-01  6.95621078e-01  1.00000000e+00  1.00000000e+00
  1.00000000e+00  6.27665555e-02  3.33746549e-01  7.40926208e-01  1.00000000e+00
  1.00000000e+00  3.34854847e-02  2.34721870e-01  8.13770283e-01  1.00000000e+00
  3.34854847e-02  2.34721870e-01  8.13770283e-01  1.00000000e+00  3.34854847e-02
  2.34721870e-01  8.13770283e-01  1.00000000e+00  3.34854847e-02  2.34721870e-01
  8.13770283e-01  1.00000000e+00  3.34854847e-02  2.34721870e-01  8.13770283e-01
  1.00000000e+00
Coordinates of each shell                  R   N=         351
  1.69325348e+00 -7.93207628e+00 -1.65904620e+00  1.69325348e+00 -7.93207628e+00
 -1.65904620e+00  1.69325348e+00 -7.93207628e+00 -1.65904620e+00  1.69325348e+00
 -7.93207628e+00 -1.65904620e+00  1.69325348e+00 -7.93207628e+00 -1.65904620e+00
  1.69325348e+00 -7.93207628e+00 -1.65904620e+00  1.69325348e+00 -7.93207628e+00
 -1.65904620e+00  1.83876239e+00 -7.11432757e-01 -1.50975783e+00  1.83876239e+00
 -7.11432757e-01 -1.50975783e+00  1.83876239e+00 -7.11432757e-01 -1.50975783e+00
  1.83876239e+00 -7.11432757e-01 -1.50975783e+00  1.83876239e+00 -7.11432757e-01
 -1.50975783e+00  1.83876239e+00 -7.11432757e-01 -1.50975783e+00  1.83876239e+00
 -7.11432757e-01 -1.50975783e+00  3.91935085e+00 -2.78685474e-01 -3.57714542e-02
  3.91935085e+00 -2.78685474e-01 -3.57714542e-02  3.91935085e+00 -2.78685474e-01
 -3.57714542e-02  3.91935085e+00 -2.78685474e-01 -3.57714542e-02  3.91935085e+00
 -2.78685474e-01 -3.57714542e-02  3.91935085e+00 -2.78685474e-01 -3.57714542e-02
  3.91935085e+00 -2.78685474e-01 -3.57714542e-02  1.11310755e+00 -3.16807672e+00
 -1.98974827e+00  1.11310755e+00 -3.16807672e+00 -1.98974827e+00  1.11310755e+00
 -3.16807672e+00 -1.98974827e+00  1.11310755e+00 -3.16807672e+00 -1.98974827e+00
  1.11310755e+00 -3.16807672e+00 -1.98974827e+00  1.11310755e+00 -3.16807672e+00
 -1.98974827e+00  1.11310755e+00 -3.16807672e+00 -1.98974827e+00  2.49638708e+00
 -5.21276039e+00 -1.04110575e+00  2.49638708e+00 -5.21276039e+00 -1.04110575e+00
  2.49638708e+00 -5.21276039e+00 -1.04110575e+00  2.49638708e+00 -5.21276039e+00
 -1.04110575e+00  2.49638708e+00 -5.21276039e+00 -1.04110575e+00  2.49638708e+00
 -5.21276039e+00 -1.04110575e+00  2.49638708e+00 -5.21276039e+00 -1.04110575e+00
  5.30829955e+00 -2.23266229e+00  9.10981335e-01  5.30829955e+00 -2.23266229e+00
  9.10981335e-01  5.30829955e+00 -2.23266229e+00  9.10981335e-01  5.30829955e+00
 -2.23266229e+00  9.10981335e-01  5.30829955e+00 -2.23266229e+00  9.10981335e-01
  5.30829955e+00 -2.23266229e+00  9.10981335e-01  5.30829955e+00 -2.23266229e+00
  9.10981335e-01  4.60910089e+00 -4.70631379e+00  4.21542268e-01  4.60910089e+00
 -4.70631379e+00  4.21542268e-01  4.60910089e+00 -4.70631379e+00  4.21542268e-01
  4.60910089e+00 -4.70631379e+00  4.21542268e-01  4.60910089e+00 -4.70631379e+00
  4.21542268e-01  4.60910089e+00 -4.70631379e+00  4.21542268e-01  4.60910089e+00
 -4.70631379e+00  4.21542268e-01  4.73949199e+00  2.08347218e+00  4.70675147e-01
  4.73949199e+00  2.08347218e+00  4.70675147e-01  4.73949199e+00  2.08347218e+00
  4.70675147e-01  4.73949199e+00  2.08347218e+00  4.70675147e-01  4.73949199e+00
  2.08347218e+00  4.70675147e-01  4.73949199e+00  2.08347218e+00  4.70675147e-01
  4.73949199e+00  2.08347218e+00  4.70675147e-01  8.22089732e-01  8.55150201e-01
 -2.31856061e+00  8.22089732e-01  8.55150201e-01 -2.31856061e+00 -5.30954174e-01
 -3.53090414e+00 -3.14059148e+00 -5.30954174e-01 -3.53090414e+00 -3.14059148e+00
  6.96747909e+00 -1.86416569e+00  2.03914783e+00  6.96747909e+00 -1.86416569e+00
  2.03914783e+00  6.21158864e+00  2.09858999e+00  1.52892178e+00  6.21158864e+00
  2.09858999e+00  1.52892178e+00  3.16346040e+00 -9.26055375e+00 -1.09779754e+00
  3.16346040e+00 -9.26055375e+00 -1.09779754e+00  1.45703771e+00 -8.04357012e+00
 -3.69995041e+00  1.45703771e+00 -8.04357012e+00 -3.69995041e+00  5.72592903e+00
 -6.24077140e+00  1.15097655e+00  5.72592903e+00 -6.24077140e+00  1.15097655e+00
 -1.05108171e-01 -8.42958259e+00 -7.42874845e-01 -1.05108171e-01 -8.42958259e+00
 -7.42874845e-01 -4.61654206e+00  2.20630438e+00 -1.51044748e-01 -4.61654206e+00
  2.20630438e+00 -1.51044748e-01 -4.61654206e+00  2.20630438e+00 -1.51044748e-01
 -4.61654206e+00  2.20630438e+00 -1.51044748e-01 -4.61654206e+00  2.20630438e+00
 -1.51044748e-01 -4.61654206e+00  2.20630438e+00 -1.51044748e-01 -4.61654206e+00
  2.20630438e+00 -1.51044748e-01 -5.83163596e+00  2.96030510e+00 -2.66060104e+00
 -5.83163596e+00  2.96030510e+00 -2.66060104e+00 -5.83163596e+00  2.96030510e+00
 -2.66060104e+00 -5.83163596e+00  2.96030510e+00 -2.66060104e+00 -5.83163596e+00
  2.96030510e+00 -2.66060104e+00 -5.83163596e+00  2.96030510e+00 -2.66060104e+00
 -5.83163596e+00  2.96030510e+00 -2.66060104e+00 -4.53150438e+00  4.35303326e+00
  1.74057110e+00 -4.53150438e+00  4.35303326e+00  1.74057110e+00 -4.53150438e+00
  4.35303326e+00  1.74057110e+00 -4.53150438e+00  4.35303326e+00  1.74057110e+00
 -4.53150438e+00  4.35303326e+00  1.74057110e+00 -4.53150438e+00  4.35303326e+00
  1.74057110e+00 -4.53150438e+00  4.35303326e+00  1.74057110e+00 -3.83986462e+00
  3.91461680e+00  3.89674861e+00 -3.83986462e+00  3.91461680e+00  3.89674861e+00
 -3.83986462e+00  3.91461680e+00  3.89674861e+00 -3.83986462e+00  3.91461680e+00
  3.89674861e+00 -3.83986462e+00  3.91461680e+00  3.89674861e+00 -3.83986462e+00
  3.91461680e+00  3.89674861e+00 -3.83986462e+00  3.91461680e+00  3.89674861e+00
 -5.19479825e+00  6.48842378e+00  1.11129230e+00 -5.19479825e+00  6.48842378e+00
  1.11129230e+00 -5.19479825e+00  6.48842378e+00  1.11129230e+00 -5.19479825e+00
  6.48842378e+00  1.11129230e+00 -5.19479825e+00  6.48842378e+00  1.11129230e+00
 -5.19479825e+00  6.48842378e+00  1.11129230e+00 -5.19479825e+00  6.48842378e+00
  1.11129230e+00 -5.78061335e+00  7.19089920e-01  6.84214200e-01 -5.78061335e+00
  7.19089920e-01  6.84214200e-01 -2.74949265e+00  1.39561187e+00 -4.17496132e-01
 -2.74949265e+00  1.39561187e+00 -4.17496132e-01 -7.46624905e+00  4.16406065e+00
 -2.29966335e+00 -7.46624905e+00  4.16406065e+00 -2.29966335e+00 -6.48822130e+00
  1.25855004e+00 -3.65754685e+00 -6.48822130e+00  1.25855004e+00 -3.65754685e+00
 -4.48352424e+00  4.00515358e+00 -3.84881548e+00 -4.48352424e+00  4.00515358e+00
 -3.84881548e+00
Total Energy                               R     -6.126717098507488e+02
Alpha Orbital Energies                     R   N=         221
 -1.86912647e+01 -1.84605212e+01 -1.84514993e+01 -9.85058682e+00 -9.80788075e+00
 -9.80636633e+00 -9.79844177e+00 -9.79565851e+00 -9.79557605e+00 -9.78886016e+00
 -9.72571408e+00 -9.71202374e+00 -9.69316144e+00 -8.81423873e-01 -7.11755674e-01
 -6.89992768e-01 -6.08998561e-01 -6.06388874e-01 -5.87541600e-01 -5.30376899e-01
 -5.10742807e-01 -4.73422932e-01 -4.43490041e-01 -4.06170065e-01 -3.87673620e-01
 -3.42939025e-01 -3.25883416e-01 -2.99829300e-01 -2.92701611e-01 -2.85284486e-01
 -2.66855460e-01 -2.65440797e-01 -2.41318727e-01 -2.32469494e-01 -2.27797300e-01
 -2.15960321e-01 -1.95005504e-01 -1.92412043e-01 -1.75886244e-01 -1.54887505e-01
 -1.46226136e-01 -1.33752319e-01 -1.24846877e-01 -9.63178006e-02 -9.41711460e-02
 -9.06694044e-02  3.50691628e-02  3.67150065e-02  5.91212678e-02  7.06844751e-02
  8.04249044e-02  1.42464840e-01  1.65277189e-01  1.91737389e-01  2.07954180e-01
  2.11603101e-01  2.29285209e-01  2.38503553e-01  2.52362652e-01  2.56108600e-01
  2.62054105e-01  2.71087946e-01  2.87123285e-01  3.03103466e-01  3.11585636e-01
  3.15551359e-01  3.32268153e-01  3.46469277e-01  3.57607180e-01  3.63801850e-01
  3.93987762e-01  3.97974814e-01  4.27409705e-01  4.33847073e-01  5.00068870e-01
  5.04369613e-01  5.14942034e-01  5.17531434e-01  5.41997338e-01  5.57631316e-01
  5.61358610e-01  5.73907639e-01  5.92895287e-01  6.02880163e-01  6.07948254e-01
  6.17635571e-01  6.26145384e-01  6.38655275e-01  6.44887272e-01  6.46732704e-01
  6.70829433e-01  6.79333731e-01  6.90116778e-01  6.94298708e-01  7.11766514e-01
  7.21519316e-01  7.28298705e-01  7.41540492e-01  7.64811349e-01  7.69176566e-01
  7.83702636e-01  7.94441043e-01  8.18662069e-01  8.58328384e-01  8.65056957e-01
  9.13520511e-01  9.41979953e-01  9.49592424e-01  9.56427229e-01  9.70363328e-01
  9.78023126e-01  9.96629716e-01  1.00746185e+00  1.01555486e+00  1.02938339e+00
  1.03865723e+00  1.04399364e+00  1.05846655e+00  1.06482198e+00  1.08837641e+00
  1.09331141e+00  1.10646404e+00  1.11118351e+00  1.12334277e+00  1.12716640e+00
  1.13730292e+00  1.17464648e+00  1.17620741e+00  1.20716126e+00  1.22041982e+00
  1.24120097e+00  1.27433406e+00  1.30063023e+00  1.30987561e+00  1.31982685e+00
  1.32916108e+00  1.35908011e+00  1.38738122e+00  1.41201224e+00  1.42661567e+00
  1.43134774e+00  1.48510912e+00  1.50332327e+00  1.52428411e+00  1.53827494e+00
  1.55930426e+00  1.60599522e+00  1.65256931e+00  1.67606546e+00  1.75796392e+00
  1.76006785e+00  1.80326796e+00  1.82319716e+00  1.86644398e+00  1.87088038e+00
  1.88055677e+00  1.89201876e+00  1.90719234e+00  1.92897698e+00  1.97772535e+00
  1.99002204e+00  2.01236584e+00  2.02404689e+00  2.02608480e+00  2.03999323e+00
  2.04775028e+00  2.07692473e+00  2.07909256e+00  2.09641442e+00  2.14140033e+00
  2.15397113e+00  2.17821677e+00  2.18230093e+00  2.19002952e+00  2.19559080e+00
  2.24479496e+00  2.26026028e+00  2.26618653e+00  2.27341035e+00  2.28587112e+00
  2.31317669e+00  2.32739223e+00  2.35206094e+00  2.35867944e+00  2.39015115e+00
  2.40208999e+00  2.43439075e+00  2.44042090e+00  2.53417603e+00  2.57623737e+00
  2.59594797e+00  2.60739317e+00  2.61062198e+00  2.66024717e+00  2.69993079e+00
  2.70961798e+00  2.71428237e+00  2.76957698e+00  2.84757007e+00  2.88688472e+00
  2.88963441e+00  2.96286521e+00  2.98560622e+00  3.02083397e+00  3.14561717e+00
  3.15242198e+00  3.35883253e+00  3.44574641e+00  1.28863011e+01  1.33139718e+01
  1.33389151e+01  1.33801035e+01  1.34900890e+01  1.36750552e+01  1.38149828e+01
  1.38430556e+01  1.38997346e+01  1.42162328e+01  2.51683763e+01  2.52360818e+01
  2.54311551e+01
Alpha MO coefficients                      R   N=       48841
 -4.17253284e-06  1.85200242e-05 -1.34435876e-04  1.62384366e-03  7.64265033e-06
  9.42257938e-05  2.90405844e-05  5.69766076e-04  1.28424910e-04  1.70129631e-04
  1.01594519e-06  1.00095684e-05  1.45285848e-05  1.06097382e-05  1.76023675e-05
 -5.05606011e-05  2.20415408e-04 -1.21611816e-03  1.30430328e-02  8.87546579e-05
  6.28730316e-05  8.11698500e-05  3.79117083e-03 -1.08742891e-02  3.02024576e-03
 -3.41687643e-05 -8.72294454e-06 -2.50105668e-04 -1.01518486e-04 -3.45511506e-04
  7.47116955e-05 -4.04823878e-04  1.77442172e-03  3.10395637e-03  3.70273105e-04
  1.08457817e-03  2.33283552e-04  1.08164113e-02  1.98012361e-02  7.08556603e-03
 -3.22205900e-04  4.16210851e-04  2.90847510e-06 -2.03460049e-04  7.00360089e-05
  1.98915040e-06 -9.58709668e-06  2.37118365e-04 -9.33741544e-03 -2.44207827e-04
 -3.11647948e-04 -1.62280773e-04 -1.74589733e-03 -2.03902844e-03 -1.27069597e-03
 -1.43947332e-05  2.81291662e-05 -1.57459941e-05 -1.23101873e-05 -2.12872065e-05
  7.69798637e-07 -2.45251504e-06 -1.20876842e-05  4.50593107e-04 -3.80020711e-05
 -1.35162412e-04 -4.79987023e-05 -4.23768949e-04  2.93297404e-03 -1.13293134e-04
 -2.44062729e-05  6.00674699e-05 -3.78974294e-05  5.61263051e-06 -5.13536467e-05
 -3.72344621e-05  1.62495159e-04 -6.93480959e-04  5.81929105e-03 -1.84798456e-05
 -7.84110870e-05 -1.54593391e-05 -6.44274371e-03 -8.76728851e-03 -4.27355696e-03
  9.40052586e-05  2.14358751e-04  1.09764943e-04  3.72717950e-04  1.58907879e-04
  7.50484374e-07 -3.20039280e-06  1.02787563e-04 -7.61181116e-03  7.51870826e-05
 -3.27079984e-04  4.17646885e-05 -1.47590039e-03 -3.20565553e-03 -1.09130992e-03
 -3.48253674e-05  6.94131131e-05  1.43042499e-05 -8.72804226e-06  2.66016067e-05
  6.35787576e-01  4.22927931e-01  5.40949839e-02 -3.48855983e-02  4.49412328e-04
 -1.60831936e-03  3.74588133e-04  8.44811881e-04  7.50786022e-03  2.85001557e-04
  3.77562770e-04 -2.63581648e-04 -2.84926484e-04  4.68170817e-04 -4.78935719e-04
  3.68856097e-05  4.68630559e-03  1.88826241e-04 -1.42419962e-04  1.12823477e-04
  3.83460170e-03  1.55614513e-03  1.55503735e-04 -1.48944876e-05 -5.06354160e-04
 -1.37216476e-05 -1.08050769e-04  1.83210594e-04  2.24486159e-04 -1.51210787e-05
  7.29834571e-05  2.58119413e-06 -1.15222034e-05  7.93216712e-05 -3.87775950e-04
 -2.28841149e-07  1.73006791e-05 -1.94780538e-05 -2.45517256e-04 -2.47494440e-05
  1.81535651e-04  8.61908106e-06 -1.50169620e-06  3.16128978e-06 -1.07055965e-05
  2.10284622e-05 -5.85565408e-08  4.31766593e-07 -1.41963420e-05  2.08461024e-04
  2.72032556e-05 -1.72963601e-05  1.40514742e-05  1.34956087e-06  7.77722894e-05
  4.59869078e-06 -7.11499127e-06  7.05254929e-06  1.30100373e-06  3.61758034e-06
 -4.28326055e-06  7.82012967e-07 -3.27136596e-06  1.59593199e-05 -4.06292725e-05
  6.77660467e-06 -5.65499294e-06 -1.02358943e-05 -2.53520125e-06  7.45789686e-05
 -9.75877296e-05 -7.84131756e-07 -7.03019527e-06 -1.96425416e-07 -8.82826161e-07
 -4.12231191e-06 -4.78958267e-06  2.80216431e-06 -2.80812728e-05  9.50825840e-05
  3.00395763e-06  5.36155321e-07 -2.39557893e-06 -1.68786453e-05 -3.18697811e-06
 -1.62808263e-05  9.68467377e-07  3.93262124e-07  9.03142234e-07  1.68420764e-06
  1.93275388e-07  3.03406882e-06 -1.68607596e-06  1.74610495e-05 -6.12792274e-05
 -2.21558482e-06  1.28969273e-06 -1.31088760e-06  1.64329536e-06  8.43324182e-06
  1.37162480e-05  1.96304532e-06 -8.88311283e-07 -2.54968192e-06 -8.28263817e-07
 -2.82075217e-06  1.25573970e-05 -1.06651673e-04 -2.33780866e-05  5.74395824e-04
 -1.37022194e-06 -1.03919449e-04 -1.01472781e-05  3.22620389e-05  2.63777198e-05
 -1.06023548e-04  3.32024167e-07 -1.48705558e-06  1.09485656e-05 -1.19157718e-04
 -2.86753058e-06 -3.48563555e-06 -1.21285928e-06 -2.45132046e-05 -3.58261659e-05
 -4.44085112e-05 -8.76860165e-07 -9.18634258e-07 -3.28323582e-06 -1.98606519e-06
 -1.08273498e-06  3.71510810e-06 -1.60051532e-05  9.09725650e-05 -5.80956915e-04
 -9.27256316e-06  1.38324748e-05 -1.45502569e-05 -6.03915293e-05 -2.29166000e-04
  2.06118194e-05  3.37067749e-06 -8.67410415e-06 -6.49645769e-06  8.55225198e-06
 -4.45606791e-06  4.80963511e-07 -2.15039598e-06  2.05124286e-06  1.11745978e-04
  4.63210775e-06  1.20128284e-06 -5.67930414e-06 -2.39665636e-04  1.55731187e-04
 -1.65083646e-04 -9.26740809e-08  5.13255042e-06 -8.42085227e-07 -1.55442668e-06
  5.26948889e-07  4.99185855e-07 -1.93554749e-06 -9.74650853e-06  1.84867755e-04
 -1.63578500e-05  7.94481441e-06  1.11472426e-05  2.23923028e-04 -7.58341214e-05
  6.43630479e-05 -9.75437614e-06  2.45743979e-07 -5.68309928e-06 -3.77000422e-06
 -6.13618716e-06  4.10568407e-07 -1.88974690e-06  2.01914330e-05 -1.76023063e-04
  3.92905462e-06  4.45667834e-06 -2.85063774e-06  2.45694589e-05 -2.88449081e-04