Generated by Psi4
        SP                           UHF                     DEF2-MSVP
Number of atoms                            I               26
Charge                                     I               -1
Multiplicity                               I                1
Number of electrons                        I               98
Number of alpha electrons                  I               49
Number of beta electrons                   I               49
Number of basis functions                  I              221
Number of independent functions            I              221
Atomic numbers                             I   N=          26
           6           6           6           6           6           6
           6           8           1           1           1           1
           1           1           1           1           6           6
           6           8           8           1           1           1
           1           1
Nuclear charges                            R   N=          26
  6.00000000e+00  6.00000000e+00  6.00000000e+00  6.00000000e+00  6.00000000e+00
  6.00000000e+00  6.00000000e+00  8.00000000e+00  1.00000000e+00  1.00000000e+00
  1.00000000e+00  1.00000000e+00  1.00000000e+00  1.00000000e+00  1.00000000e+00
  1.00000000e+00  6.00000000e+00  6.00000000e+00  6.00000000e+00  8.00000000e+00
  8.00000000e+00  1.00000000e+00  1.00000000e+00  1.00000000e+00  1.00000000e+00
  1.00000000e+00
Current cartesian coordinates              R   N=          78
  1.69325348e+00 -7.93207628e+00 -1.65904620e+00  1.83876239e+00 -7.11432757e-01
 -1.50975783e+00  3.91935085e+00 -2.78685474e-01 -3.57714542e-02  1.11310755e+00
 -3.16807672e+00 -1.98974827e+00  2.49638708e+00 -5.21276039e+00 -1.04110575e+00
  5.30829955e+00 -2.23266229e+00  9.10981335e-01  4.60910089e+00 -4.70631379e+00
  4.21542268e-01  4.73949199e+00  2.08347218e+00  4.70675147e-01  8.22089732e-01
  8.55150201e-01 -2.31856061e+00 -5.30954174e-01 -3.53090414e+00 -3.14059148e+00
  6.96747909e+00 -1.86416569e+00  2.03914783e+00  6.21158864e+00  2.09858999e+00
  1.52892178e+00  3.16346040e+00 -9.26055375e+00 -1.09779754e+00  1.45703771e+00
 -8.04357012e+00 -3.69995041e+00  5.72592903e+00 -6.24077140e+00  1.15097655e+00
 -1.05108171e-01 -8.42958259e+00 -7.42874845e-01 -4.61654206e+00  2.20630438e+00
 -1.51044748e-01 -5.83163596e+00  2.96030510e+00 -2.66060104e+00 -4.53150438e+00
  4.35303326e+00  1.74057110e+00 -3.83986462e+00  3.91461680e+00  3.89674861e+00
 -5.19479825e+00  6.48842378e+00  1.11129230e+00 -5.78061335e+00  7.19089920e-01
  6.84214200e-01 -2.74949265e+00  1.39561187e+00 -4.17496132e-01 -7.46624905e+00
  4.16406065e+00 -2.29966335e+00 -6.48822130e+00  1.25855004e+00 -3.65754685e+00
 -4.48352424e+00  4.00515358e+00 -3.84881548e+00
Integer atomic weights                     I   N=          26
          12          12          12          12          12          12
          12          16           1           1           1           1
           1           1           1           1          12          12
          12          16          16           1           1           1
           1           1
Real atomic weights                        R   N=          26
  1.20000000e+01  1.20000000e+01  1.20000000e+01  1.20000000e+01  1.20000000e+01
  1.20000000e+01  1.20000000e+01  1.59949146e+01  1.00782503e+00  1.00782503e+00
  1.00782503e+00  1.00782503e+00  1.00782503e+00  1.00782503e+00  1.00782503e+00
  1.00782503e+00  1.20000000e+01  1.20000000e+01  1.20000000e+01  1.59949146e+01
  1.59949146e+01  1.00782503e+00  1.00782503e+00  1.00782503e+00  1.00782503e+00
  1.00782503e+00
Number of primitive shells                 I              221
Number of contracted shells                I              117
Pure/Cartesian d shells                    I                0
Pure/Cartesian f shells                    I                0
Highest angular momentum                   I                2
Largest degree of contraction              I                5
Shell types                                I   N=         117
           0           0           0           0           1           1
          -2           0           0           0           0           1
           1          -2           0           0           0           0
           1           1          -2           0           0           0
           0           1           1          -2           0           0
           0           0           1           1          -2           0
           0           0           0           1           1          -2
           0           0           0           0           1           1
          -2           0           0           0           0           1
           1          -2           0           0           0           0
           0           0           0           0           0           0
           0           0           0           0           0           0
           0           0           0           0           1           1
          -2           0           0           0           0           1
           1          -2           0           0           0           0
           1           1          -2           0           0           0
           0           1           1          -2           0           0
           0           0           1           1          -2           0
           0           0           0           0           0           0
           0           0           0
Number of primitives per shell             I   N=         117
           5           1           1           1           3           1
           1           5           1           1           1           3
           1           1           5           1           1           1
           3           1           1           5           1           1
           1           3           1           1           5           1
           1           1           3           1           1           5
           1           1           1           3           1           1
           5           1           1           1           3           1
           1           5           1           1           1           3
           1           1           3           1           3           1
           3           1           3           1           3           1
           3           1           3           1           3           1
           5           1           1           1           3           1
           1           5           1           1           1           3
           1           1           5           1           1           1
           3           1           1           5           1           1
           1           3           1           1           5           1
           1           1           3           1           1           3
           1           3           1           3           1           3
           1           3           1
Shell to atom map                          I   N=         117
           1           1           1           1           1           1
           1           2           2           2           2           2
           2           2           3           3           3           3
           3           3           3           4           4           4
           4           4           4           4           5           5
           5           5           5           5           5           6
           6           6           6           6           6           6
           7           7           7           7           7           7
           7           8           8           8           8           8
           8           8           9           9          10          10
          11          11          12          12          13          13
          14          14          15          15          16          16
          17          17          17          17          17          17
          17          18          18          18          18          18
          18          18          19          19          19          19
          19          19          19          20          20          20
          20          20          20          20          21          21
          21          21          21          21          21          22
          22          23          23          24          24          25
          25          26          26
Primitive exponents                        R   N=         221
  3.62386130e+03  5.44046210e+02  1.23743380e+02  3.47632090e+01  1.09333330e+01
  3.57447650e+00  5.74832450e-01  1.73036400e-01  9.44328190e+00  2.00179860e+00
  5.46297180e-01  1.52026840e-01  8.00000000e-01  3.62386130e+03  5.44046210e+02
  1.23743380e+02  3.47632090e+01  1.09333330e+01  3.57447650e+00  5.74832450e-01
  1.73036400e-01  9.44328190e+00  2.00179860e+00  5.46297180e-01  1.52026840e-01
  8.00000000e-01  3.62386130e+03  5.44046210e+02  1.23743380e+02  3.47632090e+01
  1.09333330e+01  3.57447650e+00  5.74832450e-01  1.73036400e-01  9.44328190e+00
  2.00179860e+00  5.46297180e-01  1.52026840e-01  8.00000000e-01  3.62386130e+03
  5.44046210e+02  1.23743380e+02  3.47632090e+01  1.09333330e+01  3.57447650e+00
  5.74832450e-01  1.73036400e-01  9.44328190e+00  2.00179860e+00  5.46297180e-01
  1.52026840e-01  8.00000000e-01  3.62386130e+03  5.44046210e+02  1.23743380e+02
  3.47632090e+01  1.09333330e+01  3.57447650e+00  5.74832450e-01  1.73036400e-01
  9.44328190e+00  2.00179860e+00  5.46297180e-01  1.52026840e-01  8.00000000e-01
  3.62386130e+03  5.44046210e+02  1.23743380e+02  3.47632090e+01  1.09333330e+01
  3.57447650e+00  5.74832450e-01  1.73036400e-01  9.44328190e+00  2.00179860e+00
  5.46297180e-01  1.52026840e-01  8.00000000e-01  3.62386130e+03  5.44046210e+02
  1.23743380e+02  3.47632090e+01  1.09333330e+01  3.57447650e+00  5.74832450e-01
  1.73036400e-01  9.44328190e+00  2.00179860e+00  5.46297180e-01  1.52026840e-01
  8.00000000e-01  6.77337470e+03  1.01679700e+03  2.31267380e+02  6.50084540e+01
  2.04998080e+01  6.71606640e+00  1.14715720e+00  3.34232510e-01  1.76942640e+01
  3.85360270e+00  1.04674650e+00  2.75860430e-01  8.00000000e-01  1.87354104e+01
  2.82565040e+00  6.40134700e-01  1.75607460e-01  1.87354104e+01  2.82565040e+00
  6.40134700e-01  1.75607460e-01  1.87354104e+01  2.82565040e+00  6.40134700e-01
  1.75607460e-01  1.87354104e+01  2.82565040e+00  6.40134700e-01  1.75607460e-01
  1.87354104e+01  2.82565040e+00  6.40134700e-01  1.75607460e-01  1.87354104e+01
  2.82565040e+00  6.40134700e-01  1.75607460e-01  1.87354104e+01  2.82565040e+00
  6.40134700e-01  1.75607460e-01  1.87354104e+01  2.82565040e+00  6.40134700e-01
  1.75607460e-01  3.62386130e+03  5.44046210e+02  1.23743380e+02  3.47632090e+01
  1.09333330e+01  3.57447650e+00  5.74832450e-01  1.73036400e-01  9.44328190e+00
  2.00179860e+00  5.46297180e-01  1.52026840e-01  8.00000000e-01  3.62386130e+03
  5.44046210e+02  1.23743380e+02  3.47632090e+01  1.09333330e+01  3.57447650e+00
  5.74832450e-01  1.73036400e-01  9.44328190e+00  2.00179860e+00  5.46297180e-01
  1.52026840e-01  8.00000000e-01  3.62386130e+03  5.44046210e+02  1.23743380e+02
  3.47632090e+01  1.09333330e+01  3.57447650e+00  5.74832450e-01  1.73036400e-01
  9.44328190e+00  2.00179860e+00  5.46297180e-01  1.52026840e-01  8.00000000e-01
  6.77337470e+03  1.01679700e+03  2.31267380e+02  6.50084540e+01  2.04998080e+01
  6.71606640e+00  1.14715720e+00  3.34232510e-01  1.76942640e+01  3.85360270e+00
  1.04674650e+00  2.75860430e-01  8.00000000e-01  6.77337470e+03  1.01679700e+03
  2.31267380e+02  6.50084540e+01  2.04998080e+01  6.71606640e+00  1.14715720e+00
  3.34232510e-01  1.76942640e+01  3.85360270e+00  1.04674650e+00  2.75860430e-01
  8.00000000e-01  1.87354104e+01  2.82565040e+00  6.40134700e-01  1.75607460e-01
  1.87354104e+01  2.82565040e+00  6.40134700e-01  1.75607460e-01  1.87354104e+01
  2.82565040e+00  6.40134700e-01  1.75607460e-01  1.87354104e+01  2.82565040e+00
  6.40134700e-01  1.75607460e-01  1.87354104e+01  2.82565040e+00  6.40134700e-01
  1.75607460e-01
Contraction coefficients                   R   N=         221
  2.26333124e-03  1.73452633e-02  8.60412011e-02  3.02222721e-01  6.89843648e-01
  1.00000000e+00  1.00000000e+00  1.00000000e+00  5.70590790e-02  3.13458733e-01
  7.59988164e-01  1.00000000e+00  1.00000000e+00  2.26333124e-03  1.73452633e-02
  8.60412011e-02  3.02222721e-01  6.89843648e-01  1.00000000e+00  1.00000000e+00
  1.00000000e+00  5.70590790e-02  3.13458733e-01  7.59988164e-01  1.00000000e+00
  1.00000000e+00  2.26333124e-03  1.73452633e-02  8.60412011e-02  3.02222721e-01
  6.89843648e-01  1.00000000e+00  1.00000000e+00  1.00000000e+00  5.70590790e-02
  3.13458733e-01  7.59988164e-01  1.00000000e+00  1.00000000e+00  2.26333124e-03
  1.73452633e-02  8.60412011e-02  3.02222721e-01  6.89843648e-01  1.00000000e+00
  1.00000000e+00  1.00000000e+00  5.70590790e-02  3.13458733e-01  7.59988164e-01
  1.00000000e+00  1.00000000e+00  2.26333124e-03  1.73452633e-02  8.60412011e-02
  3.02222721e-01  6.89843648e-01  1.00000000e+00  1.00000000e+00  1.00000000e+00
  5.70590790e-02  3.13458733e-01  7.59988164e-01  1.00000000e+00  1.00000000e+00
  2.26333124e-03  1.73452633e-02  8.60412011e-02  3.02222721e-01  6.89843648e-01
  1.00000000e+00  1.00000000e+00  1.00000000e+00  5.70590790e-02  3.13458733e-01
  7.59988164e-01  1.00000000e+00  1.00000000e+00  2.26333124e-03  1.73452633e-02
  8.60412011e-02  3.02222721e-01  6.89843648e-01  1.00000000e+00  1.00000000e+00
  1.00000000e+00  5.70590790e-02  3.13458733e-01  7.59988164e-01  1.00000000e+00
  1.00000000e+00  2.18470467e-03  1.67609392e-02  8.35437088e-02  2.97707247e-01
  6.95621078e-01  1.00000000e+00  1.00000000e+00  1.00000000e+00  6.27665555e-02
  3.33746549e-01  7.40926208e-01  1.00000000e+00  1.00000000e+00  3.34854847e-02
  2.34721870e-01  8.13770283e-01  1.00000000e+00  3.34854847e-02  2.34721870e-01
  8.13770283e-01  1.00000000e+00  3.34854847e-02  2.34721870e-01  8.13770283e-01
  1.00000000e+00  3.34854847e-02  2.34721870e-01  8.13770283e-01  1.00000000e+00
  3.34854847e-02  2.34721870e-01  8.13770283e-01  1.00000000e+00  3.34854847e-02
  2.34721870e-01  8.13770283e-01  1.00000000e+00  3.34854847e-02  2.34721870e-01
  8.13770283e-01  1.00000000e+00  3.34854847e-02  2.34721870e-01  8.13770283e-01
  1.00000000e+00  2.26333124e-03  1.73452633e-02  8.60412011e-02  3.02222721e-01
  6.89843648e-01  1.00000000e+00  1.00000000e+00  1.00000000e+00  5.70590790e-02
  3.13458733e-01  7.59988164e-01  1.00000000e+00  1.00000000e+00  2.26333124e-03
  1.73452633e-02  8.60412011e-02  3.02222721e-01  6.89843648e-01  1.00000000e+00
  1.00000000e+00  1.00000000e+00  5.70590790e-02  3.13458733e-01  7.59988164e-01
  1.00000000e+00  1.00000000e+00  2.26333124e-03  1.73452633e-02  8.60412011e-02
  3.02222721e-01  6.89843648e-01  1.00000000e+00  1.00000000e+00  1.00000000e+00
  5.70590790e-02  3.13458733e-01  7.59988164e-01  1.00000000e+00  1.00000000e+00
  2.18470467e-03  1.67609392e-02  8.35437088e-02  2.97707247e-01  6.95621078e-01
  1.00000000e+00  1.00000000e+00  1.00000000e+00  6.27665555e-02  3.33746549e-01
  7.40926208e-01  1.00000000e+00  1.00000000e+00  2.18470467e-03  1.67609392e-02
  8.35437088e-02  2.97707247e-01  6.95621078e-01  1.00000000e+00  1.00000000e+00
  1.00000000e+00  6.27665555e-02  3.33746549e-01  7.40926208e-01  1.00000000e+00
  1.00000000e+00  3.34854847e-02  2.34721870e-01  8.13770283e-01  1.00000000e+00
  3.34854847e-02  2.34721870e-01  8.13770283e-01  1.00000000e+00  3.34854847e-02
  2.34721870e-01  8.13770283e-01  1.00000000e+00  3.34854847e-02  2.34721870e-01
  8.13770283e-01  1.00000000e+00  3.34854847e-02  2.34721870e-01  8.13770283e-01
  1.00000000e+00
Coordinates of each shell                  R   N=         351
  1.69325348e+00 -7.93207628e+00 -1.65904620e+00  1.69325348e+00 -7.93207628e+00
 -1.65904620e+00  1.69325348e+00 -7.93207628e+00 -1.65904620e+00  1.69325348e+00
 -7.93207628e+00 -1.65904620e+00  1.69325348e+00 -7.93207628e+00 -1.65904620e+00
  1.69325348e+00 -7.93207628e+00 -1.65904620e+00  1.69325348e+00 -7.93207628e+00
 -1.65904620e+00  1.83876239e+00 -7.11432757e-01 -1.50975783e+00  1.83876239e+00
 -7.11432757e-01 -1.50975783e+00  1.83876239e+00 -7.11432757e-01 -1.50975783e+00
  1.83876239e+00 -7.11432757e-01 -1.50975783e+00  1.83876239e+00 -7.11432757e-01
 -1.50975783e+00  1.83876239e+00 -7.11432757e-01 -1.50975783e+00  1.83876239e+00
 -7.11432757e-01 -1.50975783e+00  3.91935085e+00 -2.78685474e-01 -3.57714542e-02
  3.91935085e+00 -2.78685474e-01 -3.57714542e-02  3.91935085e+00 -2.78685474e-01
 -3.57714542e-02  3.91935085e+00 -2.78685474e-01 -3.57714542e-02  3.91935085e+00
 -2.78685474e-01 -3.57714542e-02  3.91935085e+00 -2.78685474e-01 -3.57714542e-02
  3.91935085e+00 -2.78685474e-01 -3.57714542e-02  1.11310755e+00 -3.16807672e+00
 -1.98974827e+00  1.11310755e+00 -3.16807672e+00 -1.98974827e+00  1.11310755e+00
 -3.16807672e+00 -1.98974827e+00  1.11310755e+00 -3.16807672e+00 -1.98974827e+00
  1.11310755e+00 -3.16807672e+00 -1.98974827e+00  1.11310755e+00 -3.16807672e+00
 -1.98974827e+00  1.11310755e+00 -3.16807672e+00 -1.98974827e+00  2.49638708e+00
 -5.21276039e+00 -1.04110575e+00  2.49638708e+00 -5.21276039e+00 -1.04110575e+00
  2.49638708e+00 -5.21276039e+00 -1.04110575e+00  2.49638708e+00 -5.21276039e+00
 -1.04110575e+00  2.49638708e+00 -5.21276039e+00 -1.04110575e+00  2.49638708e+00
 -5.21276039e+00 -1.04110575e+00  2.49638708e+00 -5.21276039e+00 -1.04110575e+00
  5.30829955e+00 -2.23266229e+00  9.10981335e-01  5.30829955e+00 -2.23266229e+00
  9.10981335e-01  5.30829955e+00 -2.23266229e+00  9.10981335e-01  5.30829955e+00
 -2.23266229e+00  9.10981335e-01  5.30829955e+00 -2.23266229e+00  9.10981335e-01
  5.30829955e+00 -2.23266229e+00  9.10981335e-01  5.30829955e+00 -2.23266229e+00
  9.10981335e-01  4.60910089e+00 -4.70631379e+00  4.21542268e-01  4.60910089e+00
 -4.70631379e+00  4.21542268e-01  4.60910089e+00 -4.70631379e+00  4.21542268e-01
  4.60910089e+00 -4.70631379e+00  4.21542268e-01  4.60910089e+00 -4.70631379e+00
  4.21542268e-01  4.60910089e+00 -4.70631379e+00  4.21542268e-01  4.60910089e+00
 -4.70631379e+00  4.21542268e-01  4.73949199e+00  2.08347218e+00  4.70675147e-01
  4.73949199e+00  2.08347218e+00  4.70675147e-01  4.73949199e+00  2.08347218e+00
  4.70675147e-01  4.73949199e+00  2.08347218e+00  4.70675147e-01  4.73949199e+00
  2.08347218e+00  4.70675147e-01  4.73949199e+00  2.08347218e+00  4.70675147e-01
  4.73949199e+00  2.08347218e+00  4.70675147e-01  8.22089732e-01  8.55150201e-01
 -2.31856061e+00  8.22089732e-01  8.55150201e-01 -2.31856061e+00 -5.30954174e-01
 -3.53090414e+00 -3.14059148e+00 -5.30954174e-01 -3.53090414e+00 -3.14059148e+00
  6.96747909e+00 -1.86416569e+00  2.03914783e+00  6.96747909e+00 -1.86416569e+00
  2.03914783e+00  6.21158864e+00  2.09858999e+00  1.52892178e+00  6.21158864e+00
  2.09858999e+00  1.52892178e+00  3.16346040e+00 -9.26055375e+00 -1.09779754e+00
  3.16346040e+00 -9.26055375e+00 -1.09779754e+00  1.45703771e+00 -8.04357012e+00
 -3.69995041e+00  1.45703771e+00 -8.04357012e+00 -3.69995041e+00  5.72592903e+00
 -6.24077140e+00  1.15097655e+00  5.72592903e+00 -6.24077140e+00  1.15097655e+00
 -1.05108171e-01 -8.42958259e+00 -7.42874845e-01 -1.05108171e-01 -8.42958259e+00
 -7.42874845e-01 -4.61654206e+00  2.20630438e+00 -1.51044748e-01 -4.61654206e+00
  2.20630438e+00 -1.51044748e-01 -4.61654206e+00  2.20630438e+00 -1.51044748e-01
 -4.61654206e+00  2.20630438e+00 -1.51044748e-01 -4.61654206e+00  2.20630438e+00
 -1.51044748e-01 -4.61654206e+00  2.20630438e+00 -1.51044748e-01 -4.61654206e+00
  2.20630438e+00 -1.51044748e-01 -5.83163596e+00  2.96030510e+00 -2.66060104e+00
 -5.83163596e+00  2.96030510e+00 -2.66060104e+00 -5.83163596e+00  2.96030510e+00
 -2.66060104e+00 -5.83163596e+00  2.96030510e+00 -2.66060104e+00 -5.83163596e+00
  2.96030510e+00 -2.66060104e+00 -5.83163596e+00  2.96030510e+00 -2.66060104e+00
 -5.83163596e+00  2.96030510e+00 -2.66060104e+00 -4.53150438e+00  4.35303326e+00
  1.74057110e+00 -4.53150438e+00  4.35303326e+00  1.74057110e+00 -4.53150438e+00
  4.35303326e+00  1.74057110e+00 -4.53150438e+00  4.35303326e+00  1.74057110e+00
 -4.53150438e+00  4.35303326e+00  1.74057110e+00 -4.53150438e+00  4.35303326e+00
  1.74057110e+00 -4.53150438e+00  4.35303326e+00  1.74057110e+00 -3.83986462e+00
  3.91461680e+00  3.89674861e+00 -3.83986462e+00  3.91461680e+00  3.89674861e+00
 -3.83986462e+00  3.91461680e+00  3.89674861e+00 -3.83986462e+00  3.91461680e+00
  3.89674861e+00 -3.83986462e+00  3.91461680e+00  3.89674861e+00 -3.83986462e+00
  3.91461680e+00  3.89674861e+00 -3.83986462e+00  3.91461680e+00  3.89674861e+00
 -5.19479825e+00  6.48842378e+00  1.11129230e+00 -5.19479825e+00  6.48842378e+00
  1.11129230e+00 -5.19479825e+00  6.48842378e+00  1.11129230e+00 -5.19479825e+00
  6.48842378e+00  1.11129230e+00 -5.19479825e+00  6.48842378e+00  1.11129230e+00
 -5.19479825e+00  6.48842378e+00  1.11129230e+00 -5.19479825e+00  6.48842378e+00
  1.11129230e+00 -5.78061335e+00  7.19089920e-01  6.84214200e-01 -5.78061335e+00
  7.19089920e-01  6.84214200e-01 -2.74949265e+00  1.39561187e+00 -4.17496132e-01
 -2.74949265e+00  1.39561187e+00 -4.17496132e-01 -7.46624905e+00  4.16406065e+00
 -2.29966335e+00 -7.46624905e+00  4.16406065e+00 -2.29966335e+00 -6.48822130e+00
  1.25855004e+00 -3.65754685e+00 -6.48822130e+00  1.25855004e+00 -3.65754685e+00
 -4.48352424e+00  4.00515358e+00 -3.84881548e+00 -4.48352424e+00  4.00515358e+00
 -3.84881548e+00
Total Energy                               R     -6.135875620838469e+02
Alpha Orbital Energies                     R   N=         221
 -1.86577112e+01 -1.86445690e+01 -1.84763792e+01 -9.97048559e+00 -9.83220459e+00
 -9.81367935e+00 -9.78407061e+00 -9.73928347e+00 -9.73008616e+00 -9.72965805e+00
 -9.72664050e+00 -9.72558967e+00 -9.71953191e+00 -9.29484573e-01 -8.21825795e-01
 -7.40596615e-01 -6.30582328e-01 -6.22913986e-01 -5.28661315e-01 -5.25035094e-01
 -5.04313640e-01 -4.49553681e-01 -3.95515917e-01 -3.80731650e-01 -3.68158325e-01
 -3.50434665e-01 -3.34308920e-01 -3.08342701e-01 -3.06350507e-01 -2.88150349e-01
 -2.69649120e-01 -2.62835833e-01 -2.51979167e-01 -2.39949530e-01 -2.29162776e-01
 -2.22117539e-01 -2.21785750e-01 -2.16296962e-01 -1.88616268e-01 -1.77355782e-01
 -1.57490280e-01 -1.54783689e-01 -1.48066298e-01 -1.44124837e-01 -1.24050736e-01
 -1.03870747e-01 -8.59084834e-02 -7.37699315e-02 -1.68229325e-03  8.24051296e-02
  1.21129535e-01  1.55876864e-01  1.73457783e-01  2.12994726e-01  2.24238832e-01
  2.31517347e-01  2.35175615e-01  2.43985153e-01  2.57840304e-01  2.59000157e-01
  2.72253470e-01  2.77981512e-01  2.92898762e-01  2.98600659e-01  3.00144239e-01
  3.18482648e-01  3.25882250e-01  3.34981273e-01  3.45576956e-01  3.64626547e-01
  4.02768618e-01  4.20712874e-01  4.23100765e-01  4.36461284e-01  4.61757936e-01
  5.01040390e-01  5.05071835e-01  5.34495963e-01  5.55490543e-01  5.63357298e-01
  5.74657197e-01  5.85647101e-01  5.88767808e-01  5.93209922e-01  6.10421829e-01
  6.15342193e-01  6.26213085e-01  6.44433859e-01  6.45226101e-01  6.58455254e-01
  6.73375560e-01  6.83016485e-01  6.93230859e-01  6.94813436e-01  7.02310344e-01
  7.09080703e-01  7.14389395e-01  7.30188227e-01  7.57611433e-01  7.67274057e-01
  7.76490336e-01  7.91152005e-01  8.04278351e-01  8.35931751e-01  8.49485130e-01
  9.27688894e-01  9.28706141e-01  9.41774865e-01  9.66647119e-01  9.73905436e-01
  9.82720866e-01  9.95272389e-01  1.00300538e+00  1.02196603e+00  1.03408089e+00
  1.04046275e+00  1.04651144e+00  1.05379722e+00  1.06778954e+00  1.07581811e+00
  1.08125601e+00  1.09739955e+00  1.10730223e+00  1.12924209e+00  1.13799784e+00
  1.15104948e+00  1.16047461e+00  1.16473138e+00  1.17551123e+00  1.18087195e+00
  1.19991334e+00  1.22923548e+00  1.24367397e+00  1.31491938e+00  1.34567642e+00
  1.34922296e+00  1.36775771e+00  1.38570765e+00  1.44405673e+00  1.45652756e+00
  1.47998176e+00  1.49262281e+00  1.50956792e+00  1.52266084e+00  1.55196271e+00
  1.55427682e+00  1.57307250e+00  1.60181345e+00  1.62197724e+00  1.69474817e+00
  1.74238779e+00  1.79097499e+00  1.82592144e+00  1.84172459e+00  1.84265569e+00
  1.87226918e+00  1.87949489e+00  1.88101158e+00  1.89309430e+00  1.91886666e+00
  1.93962528e+00  1.94405653e+00  1.95477251e+00  1.97809899e+00  2.00575116e+00
  2.01697080e+00  2.03576410e+00  2.04649608e+00  2.08620370e+00  2.08812843e+00
  2.10285810e+00  2.13113888e+00  2.13842541e+00  2.16902838e+00  2.21291137e+00
  2.22630535e+00  2.23656899e+00  2.25754749e+00  2.28108740e+00  2.28985182e+00
  2.32458269e+00  2.33831682e+00  2.34268725e+00  2.38473629e+00  2.39303736e+00
  2.42377006e+00  2.42697601e+00  2.46253508e+00  2.48214752e+00  2.52442924e+00
  2.53536740e+00  2.63472339e+00  2.66990302e+00  2.68205424e+00  2.69277937e+00
  2.73958302e+00  2.77362638e+00  2.78298871e+00  2.79599923e+00  2.83270356e+00
  2.83804242e+00  2.92358298e+00  2.96185080e+00  2.96518152e+00  3.05956070e+00
  3.16174410e+00  3.23345559e+00  3.52021065e+00  1.29524082e+01  1.32467468e+01
  1.33913851e+01  1.34001969e+01  1.35262760e+01  1.35598401e+01  1.37034029e+01
  1.38754511e+01  1.39223667e+01  1.42933966e+01  2.50373628e+01  2.52313658e+01
  2.53666410e+01
Alpha MO coefficients                      R   N=       48841
 -1.63748377e-07  7.46461478e-07 -7.02307722e-06  9.53759655e-05  2.70587690e-06
  5.66720747e-06 -5.51012101e-07  3.17963064e-05  1.36963976e-05  4.45929787e-05
 -5.50813608e-07  9.81409251e-07  3.50884409e-06  2.77860725e-06  1.93294064e-06
 -4.43558037e-06  1.87642048e-05 -8.89696046e-05  2.25718993e-04  4.48281435e-05
 -1.47966414e-05 -1.75339840e-05 -2.96593585e-04  5.66519824e-05  4.22718277e-06
 -5.52437193e-06 -4.57757067e-06  2.92554695e-06 -2.20236731e-05 -1.33653313e-08
 -1.63127277e-06  7.16003823e-06 -4.91148744e-05  3.79296582e-04 -1.67059273e-05
  9.52997255e-07  1.11117073e-05  1.57594000e-04 -2.92707084e-04 -7.03062116e-05
  4.95650831e-06  8.41770836e-06 -4.15488372e-07 -5.55558257e-08 -3.17775552e-06
  1.83070355e-07 -1.15150067e-06  3.10954994e-05 -2.89507370e-04  1.48146172e-05
 -8.56222223e-06 -1.38810728e-05 -7.23748994e-05 -6.11668666e-05 -5.17721617e-05
  6.75110322e-06 -6.67921673e-06 -3.08400704e-06  9.54998978e-06  1.26411225e-05
  8.46005731e-08 -3.32954169e-07 -4.03062141e-06 -1.24268448e-05 -7.05044669e-06
 -4.79502023e-06  1.45780935e-06 -4.86746233e-05  1.89357748e-04 -5.64796510e-05
 -2.39964368e-06  1.61214383e-06 -5.23605872e-06 -5.39647378e-06 -3.85750689e-06
  5.82857959e-07 -2.61204189e-06  2.41193228e-05 -2.48271791e-04  4.27264172e-06
 -9.99742681e-06 -8.28841195e-07  1.29045019e-04 -1.12963841e-04  1.59380061e-04
 -1.28095159e-06 -5.40762847e-06  5.90427465e-06  4.57561610e-06 -3.68506712e-07
  1.03706498e-08 -1.46071326e-08 -4.00453086e-06  5.23981496e-05  4.48926732e-06
  7.43326498e-06  6.41124729e-06 -7.08176814e-05 -5.72985449e-05 -6.93635659e-05
 -2.86270740e-06  8.54093461e-07 -8.79614650e-07 -5.34992982e-08  3.62678372e-06
 -6.18919205e-06  1.94961868e-06 -2.73865391e-05  8.04284040e-05  1.08774657e-05
 -4.62580538e-07 -5.95990098e-09 -7.71392232e-05 -4.34709053e-06 -7.81976543e-06
  9.61498858e-07 -1.72407375e-06 -3.20100588e-06  4.18402060e-06  8.44578143e-06
 -5.31792857e-05 -3.10616198e-05  5.74713382e-06 -3.87784831e-05  4.81645675e-06
 -7.55474172e-05  6.24084174e-06  3.94196745e-05 -3.17385056e-06 -1.94441620e-05
 -7.41711963e-07  1.57128566e-05 -5.85891489e-07  1.21800988e-06 -3.18925188e-06
 -2.33854006e-06 -4.92689452e-05  2.05927310e-04 -5.99611042e-04  1.36899061e-03
 -7.01205375e-05 -3.00505696e-05 -2.18512930e-04 -6.93444774e-04  5.67475040e-04
 -2.43016514e-03 -4.40916529e-04 -5.97174869e-05 -3.41780685e-04 -1.89126119e-04
 -1.67994470e-04 -2.56616508e-05  1.12837736e-04 -6.38202457e-04 -2.48128843e-04
 -1.20133285e-04 -1.23597307e-04 -2.31346769e-04  3.12069990e-04  2.16240214e-03
  1.26980784e-03  1.58973723e-04 -2.05452538e-05  1.06017612e-04  3.68624953e-05
 -2.41018374e-05 -6.13330438e-05  1.89627198e-04  9.51479437e-04  1.15208880e-02
  2.79033803e-04 -6.35490620e-05  1.00468665e-03  3.87627992e-03 -2.71380071e-03
  1.18278719e-02 -7.40686336e-04 -3.86556114e-04  6.56978687e-04 -5.22838453e-04
 -2.83602477e-05  6.35688311e-01  4.23106104e-01  5.32244903e-02 -3.13915881e-02
 -7.00008253e-04  4.55879976e-04 -2.13257062e-03  2.20762262e-03 -1.50415297e-03
  6.84149594e-03 -5.17638595e-04 -3.10024534e-04  2.65141753e-04 -7.63700562e-05
  6.10204062e-05 -2.73885494e-03 -1.62786658e-03 -9.06094693e-04  1.40512798e-03
 -5.88364015e-05  2.70641090e-04  4.33358010e-05 -4.96182072e-04 -5.78232631e-04
 -2.38409082e-03 -8.30976890e-05 -1.39408791e-04  6.12510804e-04 -2.40790222e-04
  6.60908063e-05  7.55564005e-05 -2.55637138e-04  1.47916157e-04 -6.05858939e-04
 -2.14300905e-04 -1.32121658e-04  4.25592069e-05  1.40665620e-03 -1.69271004e-04
 -2.34671891e-04  3.24512850e-07 -1.44932220e-06  1.06611054e-05 -1.16414689e-04
 -2.79004493e-06 -3.40454069e-06 -1.21141215e-06 -2.37949869e-05 -3.51586428e-05
 -4.32088980e-05 -8.77074334e-07 -8.84108668e-07 -3.19385158e-06 -1.91314960e-06
 -1.04161403e-06  3.66340913e-06 -1.57340521e-05  8.96093811e-05 -5.77428302e-04
 -8.51651807e-06  1.34920847e-05 -1.47533378e-05 -6.52635007e-05 -2.27813934e-04
  1.98472907e-05  3.29610779e-06 -8.77410054e-06 -6.43831039e-06  8.19425502e-06
 -4.48012855e-06  4.58188089e-07 -2.04383460e-06  1.33487958e-06  1.16434574e-04
  4.41360233e-06  1.21854136e-06 -5.50847345e-06 -2.38516923e-04  1.52435613e-04
 -1.66700046e-04 -2.93761069e-08  5.25966433e-06 -8.03564150e-07 -1.55811395e-06
  5.48294602e-07  5.12441569e-07 -1.99196928e-06 -8.93300237e-06  1.76885743e-04
 -1.60040356e-05  7.76122244e-06  1.08045520e-05  2.20969007e-04 -7.48723683e-05
  6.32194452e-05 -9.58169775e-06  1.28750481e-07 -5.61953420e-06 -3.60777270e-06
 -5.79661318e-06  4.03692369e-07 -1.85203152e-06  1.97199731e-05 -1.72721311e-04
  3.80023361e-06  4.34858274e-06 -2.76623147e-06  2.32611058e-05 -2.82008757e-04