Generated by Psi4
        SP                           UHF                     DEF2-MSVP
Number of atoms                            I               26
Charge                                     I               -1
Multiplicity                               I                1
Number of electrons                        I               98
Number of alpha electrons                  I               49
Number of beta electrons                   I               49
Number of basis functions                  I              221
Number of independent functions            I              221
Atomic numbers                             I   N=          26
           6           6           6           6           6           6
           6           8           1           1           1           1
           1           1           1           1           6           6
           6           8           8           1           1           1
           1           1
Nuclear charges                            R   N=          26
  6.00000000e+00  6.00000000e+00  6.00000000e+00  6.00000000e+00  6.00000000e+00
  6.00000000e+00  6.00000000e+00  8.00000000e+00  1.00000000e+00  1.00000000e+00
  1.00000000e+00  1.00000000e+00  1.00000000e+00  1.00000000e+00  1.00000000e+00
  1.00000000e+00  6.00000000e+00  6.00000000e+00  6.00000000e+00  8.00000000e+00
  8.00000000e+00  1.00000000e+00  1.00000000e+00  1.00000000e+00  1.00000000e+00
  1.00000000e+00
Current cartesian coordinates              R   N=          78
  1.69325348e+00 -7.93207628e+00 -1.65904620e+00  1.83876239e+00 -7.11432757e-01
 -1.50975783e+00  3.91935085e+00 -2.78685474e-01 -3.57714542e-02  1.11310755e+00
 -3.16807672e+00 -1.98974827e+00  2.49638708e+00 -5.21276039e+00 -1.04110575e+00
  5.30829955e+00 -2.23266229e+00  9.10981335e-01  4.60910089e+00 -4.70631379e+00
  4.21542268e-01  4.73949199e+00  2.08347218e+00  4.70675147e-01  8.22089732e-01
  8.55150201e-01 -2.31856061e+00 -5.30954174e-01 -3.53090414e+00 -3.14059148e+00
  6.96747909e+00 -1.86416569e+00  2.03914783e+00  6.21158864e+00  2.09858999e+00
  1.52892178e+00  3.16346040e+00 -9.26055375e+00 -1.09779754e+00  1.45703771e+00
 -8.04357012e+00 -3.69995041e+00  5.72592903e+00 -6.24077140e+00  1.15097655e+00
 -1.05108171e-01 -8.42958259e+00 -7.42874845e-01 -4.61654206e+00  2.20630438e+00
 -1.51044748e-01 -5.83163596e+00  2.96030510e+00 -2.66060104e+00 -4.53150438e+00
  4.35303326e+00  1.74057110e+00 -3.83986462e+00  3.91461680e+00  3.89674861e+00
 -5.19479825e+00  6.48842378e+00  1.11129230e+00 -5.78061335e+00  7.19089920e-01
  6.84214200e-01 -2.74949265e+00  1.39561187e+00 -4.17496132e-01 -7.46624905e+00
  4.16406065e+00 -2.29966335e+00 -6.48822130e+00  1.25855004e+00 -3.65754685e+00
 -4.48352424e+00  4.00515358e+00 -3.84881548e+00
Integer atomic weights                     I   N=          26
          12          12          12          12          12          12
          12          16           1           1           1           1
           1           1           1           1          12          12
          12          16          16           1           1           1
           1           1
Real atomic weights                        R   N=          26
  1.20000000e+01  1.20000000e+01  1.20000000e+01  1.20000000e+01  1.20000000e+01
  1.20000000e+01  1.20000000e+01  1.59949146e+01  1.00782503e+00  1.00782503e+00
  1.00782503e+00  1.00782503e+00  1.00782503e+00  1.00782503e+00  1.00782503e+00
  1.00782503e+00  1.20000000e+01  1.20000000e+01  1.20000000e+01  1.59949146e+01
  1.59949146e+01  1.00782503e+00  1.00782503e+00  1.00782503e+00  1.00782503e+00
  1.00782503e+00
Number of primitive shells                 I              221
Number of contracted shells                I              117
Pure/Cartesian d shells                    I                0
Pure/Cartesian f shells                    I                0
Highest angular momentum                   I                2
Largest degree of contraction              I                5
Shell types                                I   N=         117
           0           0           0           0           1           1
          -2           0           0           0           0           1
           1          -2           0           0           0           0
           1           1          -2           0           0           0
           0           1           1          -2           0           0
           0           0           1           1          -2           0
           0           0           0           1           1          -2
           0           0           0           0           1           1
          -2           0           0           0           0           1
           1          -2           0           0           0           0
           0           0           0           0           0           0
           0           0           0           0           0           0
           0           0           0           0           1           1
          -2           0           0           0           0           1
           1          -2           0           0           0           0
           1           1          -2           0           0           0
           0           1           1          -2           0           0
           0           0           1           1          -2           0
           0           0           0           0           0           0
           0           0           0
Number of primitives per shell             I   N=         117
           5           1           1           1           3           1
           1           5           1           1           1           3
           1           1           5           1           1           1
           3           1           1           5           1           1
           1           3           1           1           5           1
           1           1           3           1           1           5
           1           1           1           3           1           1
           5           1           1           1           3           1
           1           5           1           1           1           3
           1           1           3           1           3           1
           3           1           3           1           3           1
           3           1           3           1           3           1
           5           1           1           1           3           1
           1           5           1           1           1           3
           1           1           5           1           1           1
           3           1           1           5           1           1
           1           3           1           1           5           1
           1           1           3           1           1           3
           1           3           1           3           1           3
           1           3           1
Shell to atom map                          I   N=         117
           1           1           1           1           1           1
           1           2           2           2           2           2
           2           2           3           3           3           3
           3           3           3           4           4           4
           4           4           4           4           5           5
           5           5           5           5           5           6
           6           6           6           6           6           6
           7           7           7           7           7           7
           7           8           8           8           8           8
           8           8           9           9          10          10
          11          11          12          12          13          13
          14          14          15          15          16          16
          17          17          17          17          17          17
          17          18          18          18          18          18
          18          18          19          19          19          19
          19          19          19          20          20          20
          20          20          20          20          21          21
          21          21          21          21          21          22
          22          23          23          24          24          25
          25          26          26
Primitive exponents                        R   N=         221
  3.62386130e+03  5.44046210e+02  1.23743380e+02  3.47632090e+01  1.09333330e+01
  3.57447650e+00  5.74832450e-01  1.73036400e-01  9.44328190e+00  2.00179860e+00
  5.46297180e-01  1.52026840e-01  8.00000000e-01  3.62386130e+03  5.44046210e+02
  1.23743380e+02  3.47632090e+01  1.09333330e+01  3.57447650e+00  5.74832450e-01
  1.73036400e-01  9.44328190e+00  2.00179860e+00  5.46297180e-01  1.52026840e-01
  8.00000000e-01  3.62386130e+03  5.44046210e+02  1.23743380e+02  3.47632090e+01
  1.09333330e+01  3.57447650e+00  5.74832450e-01  1.73036400e-01  9.44328190e+00
  2.00179860e+00  5.46297180e-01  1.52026840e-01  8.00000000e-01  3.62386130e+03
  5.44046210e+02  1.23743380e+02  3.47632090e+01  1.09333330e+01  3.57447650e+00
  5.74832450e-01  1.73036400e-01  9.44328190e+00  2.00179860e+00  5.46297180e-01
  1.52026840e-01  8.00000000e-01  3.62386130e+03  5.44046210e+02  1.23743380e+02
  3.47632090e+01  1.09333330e+01  3.57447650e+00  5.74832450e-01  1.73036400e-01
  9.44328190e+00  2.00179860e+00  5.46297180e-01  1.52026840e-01  8.00000000e-01
  3.62386130e+03  5.44046210e+02  1.23743380e+02  3.47632090e+01  1.09333330e+01
  3.57447650e+00  5.74832450e-01  1.73036400e-01  9.44328190e+00  2.00179860e+00
  5.46297180e-01  1.52026840e-01  8.00000000e-01  3.62386130e+03  5.44046210e+02
  1.23743380e+02  3.47632090e+01  1.09333330e+01  3.57447650e+00  5.74832450e-01
  1.73036400e-01  9.44328190e+00  2.00179860e+00  5.46297180e-01  1.52026840e-01
  8.00000000e-01  6.77337470e+03  1.01679700e+03  2.31267380e+02  6.50084540e+01
  2.04998080e+01  6.71606640e+00  1.14715720e+00  3.34232510e-01  1.76942640e+01
  3.85360270e+00  1.04674650e+00  2.75860430e-01  8.00000000e-01  1.87354104e+01
  2.82565040e+00  6.40134700e-01  1.75607460e-01  1.87354104e+01  2.82565040e+00
  6.40134700e-01  1.75607460e-01  1.87354104e+01  2.82565040e+00  6.40134700e-01
  1.75607460e-01  1.87354104e+01  2.82565040e+00  6.40134700e-01  1.75607460e-01
  1.87354104e+01  2.82565040e+00  6.40134700e-01  1.75607460e-01  1.87354104e+01
  2.82565040e+00  6.40134700e-01  1.75607460e-01  1.87354104e+01  2.82565040e+00
  6.40134700e-01  1.75607460e-01  1.87354104e+01  2.82565040e+00  6.40134700e-01
  1.75607460e-01  3.62386130e+03  5.44046210e+02  1.23743380e+02  3.47632090e+01
  1.09333330e+01  3.57447650e+00  5.74832450e-01  1.73036400e-01  9.44328190e+00
  2.00179860e+00  5.46297180e-01  1.52026840e-01  8.00000000e-01  3.62386130e+03
  5.44046210e+02  1.23743380e+02  3.47632090e+01  1.09333330e+01  3.57447650e+00
  5.74832450e-01  1.73036400e-01  9.44328190e+00  2.00179860e+00  5.46297180e-01
  1.52026840e-01  8.00000000e-01  3.62386130e+03  5.44046210e+02  1.23743380e+02
  3.47632090e+01  1.09333330e+01  3.57447650e+00  5.74832450e-01  1.73036400e-01
  9.44328190e+00  2.00179860e+00  5.46297180e-01  1.52026840e-01  8.00000000e-01
  6.77337470e+03  1.01679700e+03  2.31267380e+02  6.50084540e+01  2.04998080e+01
  6.71606640e+00  1.14715720e+00  3.34232510e-01  1.76942640e+01  3.85360270e+00
  1.04674650e+00  2.75860430e-01  8.00000000e-01  6.77337470e+03  1.01679700e+03
  2.31267380e+02  6.50084540e+01  2.04998080e+01  6.71606640e+00  1.14715720e+00
  3.34232510e-01  1.76942640e+01  3.85360270e+00  1.04674650e+00  2.75860430e-01
  8.00000000e-01  1.87354104e+01  2.82565040e+00  6.40134700e-01  1.75607460e-01
  1.87354104e+01  2.82565040e+00  6.40134700e-01  1.75607460e-01  1.87354104e+01
  2.82565040e+00  6.40134700e-01  1.75607460e-01  1.87354104e+01  2.82565040e+00
  6.40134700e-01  1.75607460e-01  1.87354104e+01  2.82565040e+00  6.40134700e-01
  1.75607460e-01
Contraction coefficients                   R   N=         221
  2.26333124e-03  1.73452633e-02  8.60412011e-02  3.02222721e-01  6.89843648e-01
  1.00000000e+00  1.00000000e+00  1.00000000e+00  5.70590790e-02  3.13458733e-01
  7.59988164e-01  1.00000000e+00  1.00000000e+00  2.26333124e-03  1.73452633e-02
  8.60412011e-02  3.02222721e-01  6.89843648e-01  1.00000000e+00  1.00000000e+00
  1.00000000e+00  5.70590790e-02  3.13458733e-01  7.59988164e-01  1.00000000e+00
  1.00000000e+00  2.26333124e-03  1.73452633e-02  8.60412011e-02  3.02222721e-01
  6.89843648e-01  1.00000000e+00  1.00000000e+00  1.00000000e+00  5.70590790e-02
  3.13458733e-01  7.59988164e-01  1.00000000e+00  1.00000000e+00  2.26333124e-03
  1.73452633e-02  8.60412011e-02  3.02222721e-01  6.89843648e-01  1.00000000e+00
  1.00000000e+00  1.00000000e+00  5.70590790e-02  3.13458733e-01  7.59988164e-01
  1.00000000e+00  1.00000000e+00  2.26333124e-03  1.73452633e-02  8.60412011e-02
  3.02222721e-01  6.89843648e-01  1.00000000e+00  1.00000000e+00  1.00000000e+00
  5.70590790e-02  3.13458733e-01  7.59988164e-01  1.00000000e+00  1.00000000e+00
  2.26333124e-03  1.73452633e-02  8.60412011e-02  3.02222721e-01  6.89843648e-01
  1.00000000e+00  1.00000000e+00  1.00000000e+00  5.70590790e-02  3.13458733e-01
  7.59988164e-01  1.00000000e+00  1.00000000e+00  2.26333124e-03  1.73452633e-02
  8.60412011e-02  3.02222721e-01  6.89843648e-01  1.00000000e+00  1.00000000e+00
  1.00000000e+00  5.70590790e-02  3.13458733e-01  7.59988164e-01  1.00000000e+00
  1.00000000e+00  2.18470467e-03  1.67609392e-02  8.35437088e-02  2.97707247e-01
  6.95621078e-01  1.00000000e+00  1.00000000e+00  1.00000000e+00  6.27665555e-02
  3.33746549e-01  7.40926208e-01  1.00000000e+00  1.00000000e+00  3.34854847e-02
  2.34721870e-01  8.13770283e-01  1.00000000e+00  3.34854847e-02  2.34721870e-01
  8.13770283e-01  1.00000000e+00  3.34854847e-02  2.34721870e-01  8.13770283e-01
  1.00000000e+00  3.34854847e-02  2.34721870e-01  8.13770283e-01  1.00000000e+00
  3.34854847e-02  2.34721870e-01  8.13770283e-01  1.00000000e+00  3.34854847e-02
  2.34721870e-01  8.13770283e-01  1.00000000e+00  3.34854847e-02  2.34721870e-01
  8.13770283e-01  1.00000000e+00  3.34854847e-02  2.34721870e-01  8.13770283e-01
  1.00000000e+00  2.26333124e-03  1.73452633e-02  8.60412011e-02  3.02222721e-01
  6.89843648e-01  1.00000000e+00  1.00000000e+00  1.00000000e+00  5.70590790e-02
  3.13458733e-01  7.59988164e-01  1.00000000e+00  1.00000000e+00  2.26333124e-03
  1.73452633e-02  8.60412011e-02  3.02222721e-01  6.89843648e-01  1.00000000e+00
  1.00000000e+00  1.00000000e+00  5.70590790e-02  3.13458733e-01  7.59988164e-01
  1.00000000e+00  1.00000000e+00  2.26333124e-03  1.73452633e-02  8.60412011e-02
  3.02222721e-01  6.89843648e-01  1.00000000e+00  1.00000000e+00  1.00000000e+00
  5.70590790e-02  3.13458733e-01  7.59988164e-01  1.00000000e+00  1.00000000e+00
  2.18470467e-03  1.67609392e-02  8.35437088e-02  2.97707247e-01  6.95621078e-01
  1.00000000e+00  1.00000000e+00  1.00000000e+00  6.27665555e-02  3.33746549e-01
  7.40926208e-01  1.00000000e+00  1.00000000e+00  2.18470467e-03  1.67609392e-02
  8.35437088e-02  2.97707247e-01  6.95621078e-01  1.00000000e+00  1.00000000e+00
  1.00000000e+00  6.27665555e-02  3.33746549e-01  7.40926208e-01  1.00000000e+00
  1.00000000e+00  3.34854847e-02  2.34721870e-01  8.13770283e-01  1.00000000e+00
  3.34854847e-02  2.34721870e-01  8.13770283e-01  1.00000000e+00  3.34854847e-02
  2.34721870e-01  8.13770283e-01  1.00000000e+00  3.34854847e-02  2.34721870e-01
  8.13770283e-01  1.00000000e+00  3.34854847e-02  2.34721870e-01  8.13770283e-01
  1.00000000e+00
Coordinates of each shell                  R   N=         351
  1.69325348e+00 -7.93207628e+00 -1.65904620e+00  1.69325348e+00 -7.93207628e+00
 -1.65904620e+00  1.69325348e+00 -7.93207628e+00 -1.65904620e+00  1.69325348e+00
 -7.93207628e+00 -1.65904620e+00  1.69325348e+00 -7.93207628e+00 -1.65904620e+00
  1.69325348e+00 -7.93207628e+00 -1.65904620e+00  1.69325348e+00 -7.93207628e+00
 -1.65904620e+00  1.83876239e+00 -7.11432757e-01 -1.50975783e+00  1.83876239e+00
 -7.11432757e-01 -1.50975783e+00  1.83876239e+00 -7.11432757e-01 -1.50975783e+00
  1.83876239e+00 -7.11432757e-01 -1.50975783e+00  1.83876239e+00 -7.11432757e-01
 -1.50975783e+00  1.83876239e+00 -7.11432757e-01 -1.50975783e+00  1.83876239e+00
 -7.11432757e-01 -1.50975783e+00  3.91935085e+00 -2.78685474e-01 -3.57714542e-02
  3.91935085e+00 -2.78685474e-01 -3.57714542e-02  3.91935085e+00 -2.78685474e-01
 -3.57714542e-02  3.91935085e+00 -2.78685474e-01 -3.57714542e-02  3.91935085e+00
 -2.78685474e-01 -3.57714542e-02  3.91935085e+00 -2.78685474e-01 -3.57714542e-02
  3.91935085e+00 -2.78685474e-01 -3.57714542e-02  1.11310755e+00 -3.16807672e+00
 -1.98974827e+00  1.11310755e+00 -3.16807672e+00 -1.98974827e+00  1.11310755e+00
 -3.16807672e+00 -1.98974827e+00  1.11310755e+00 -3.16807672e+00 -1.98974827e+00
  1.11310755e+00 -3.16807672e+00 -1.98974827e+00  1.11310755e+00 -3.16807672e+00
 -1.98974827e+00  1.11310755e+00 -3.16807672e+00 -1.98974827e+00  2.49638708e+00
 -5.21276039e+00 -1.04110575e+00  2.49638708e+00 -5.21276039e+00 -1.04110575e+00
  2.49638708e+00 -5.21276039e+00 -1.04110575e+00  2.49638708e+00 -5.21276039e+00
 -1.04110575e+00  2.49638708e+00 -5.21276039e+00 -1.04110575e+00  2.49638708e+00
 -5.21276039e+00 -1.04110575e+00  2.49638708e+00 -5.21276039e+00 -1.04110575e+00
  5.30829955e+00 -2.23266229e+00  9.10981335e-01  5.30829955e+00 -2.23266229e+00
  9.10981335e-01  5.30829955e+00 -2.23266229e+00  9.10981335e-01  5.30829955e+00
 -2.23266229e+00  9.10981335e-01  5.30829955e+00 -2.23266229e+00  9.10981335e-01
  5.30829955e+00 -2.23266229e+00  9.10981335e-01  5.30829955e+00 -2.23266229e+00
  9.10981335e-01  4.60910089e+00 -4.70631379e+00  4.21542268e-01  4.60910089e+00
 -4.70631379e+00  4.21542268e-01  4.60910089e+00 -4.70631379e+00  4.21542268e-01
  4.60910089e+00 -4.70631379e+00  4.21542268e-01  4.60910089e+00 -4.70631379e+00
  4.21542268e-01  4.60910089e+00 -4.70631379e+00  4.21542268e-01  4.60910089e+00
 -4.70631379e+00  4.21542268e-01  4.73949199e+00  2.08347218e+00  4.70675147e-01
  4.73949199e+00  2.08347218e+00  4.70675147e-01  4.73949199e+00  2.08347218e+00
  4.70675147e-01  4.73949199e+00  2.08347218e+00  4.70675147e-01  4.73949199e+00
  2.08347218e+00  4.70675147e-01  4.73949199e+00  2.08347218e+00  4.70675147e-01
  4.73949199e+00  2.08347218e+00  4.70675147e-01  8.22089732e-01  8.55150201e-01
 -2.31856061e+00  8.22089732e-01  8.55150201e-01 -2.31856061e+00 -5.30954174e-01
 -3.53090414e+00 -3.14059148e+00 -5.30954174e-01 -3.53090414e+00 -3.14059148e+00
  6.96747909e+00 -1.86416569e+00  2.03914783e+00  6.96747909e+00 -1.86416569e+00
  2.03914783e+00  6.21158864e+00  2.09858999e+00  1.52892178e+00  6.21158864e+00
  2.09858999e+00  1.52892178e+00  3.16346040e+00 -9.26055375e+00 -1.09779754e+00
  3.16346040e+00 -9.26055375e+00 -1.09779754e+00  1.45703771e+00 -8.04357012e+00
 -3.69995041e+00  1.45703771e+00 -8.04357012e+00 -3.69995041e+00  5.72592903e+00
 -6.24077140e+00  1.15097655e+00  5.72592903e+00 -6.24077140e+00  1.15097655e+00
 -1.05108171e-01 -8.42958259e+00 -7.42874845e-01 -1.05108171e-01 -8.42958259e+00
 -7.42874845e-01 -4.61654206e+00  2.20630438e+00 -1.51044748e-01 -4.61654206e+00
  2.20630438e+00 -1.51044748e-01 -4.61654206e+00  2.20630438e+00 -1.51044748e-01
 -4.61654206e+00  2.20630438e+00 -1.51044748e-01 -4.61654206e+00  2.20630438e+00
 -1.51044748e-01 -4.61654206e+00  2.20630438e+00 -1.51044748e-01 -4.61654206e+00
  2.20630438e+00 -1.51044748e-01 -5.83163596e+00  2.96030510e+00 -2.66060104e+00
 -5.83163596e+00  2.96030510e+00 -2.66060104e+00 -5.83163596e+00  2.96030510e+00
 -2.66060104e+00 -5.83163596e+00  2.96030510e+00 -2.66060104e+00 -5.83163596e+00
  2.96030510e+00 -2.66060104e+00 -5.83163596e+00  2.96030510e+00 -2.66060104e+00
 -5.83163596e+00  2.96030510e+00 -2.66060104e+00 -4.53150438e+00  4.35303326e+00
  1.74057110e+00 -4.53150438e+00  4.35303326e+00  1.74057110e+00 -4.53150438e+00
  4.35303326e+00  1.74057110e+00 -4.53150438e+00  4.35303326e+00  1.74057110e+00
 -4.53150438e+00  4.35303326e+00  1.74057110e+00 -4.53150438e+00  4.35303326e+00
  1.74057110e+00 -4.53150438e+00  4.35303326e+00  1.74057110e+00 -3.83986462e+00
  3.91461680e+00  3.89674861e+00 -3.83986462e+00  3.91461680e+00  3.89674861e+00
 -3.83986462e+00  3.91461680e+00  3.89674861e+00 -3.83986462e+00  3.91461680e+00
  3.89674861e+00 -3.83986462e+00  3.91461680e+00  3.89674861e+00 -3.83986462e+00
  3.91461680e+00  3.89674861e+00 -3.83986462e+00  3.91461680e+00  3.89674861e+00
 -5.19479825e+00  6.48842378e+00  1.11129230e+00 -5.19479825e+00  6.48842378e+00
  1.11129230e+00 -5.19479825e+00  6.48842378e+00  1.11129230e+00 -5.19479825e+00
  6.48842378e+00  1.11129230e+00 -5.19479825e+00  6.48842378e+00  1.11129230e+00
 -5.19479825e+00  6.48842378e+00  1.11129230e+00 -5.19479825e+00  6.48842378e+00
  1.11129230e+00 -5.78061335e+00  7.19089920e-01  6.84214200e-01 -5.78061335e+00
  7.19089920e-01  6.84214200e-01 -2.74949265e+00  1.39561187e+00 -4.17496132e-01
 -2.74949265e+00  1.39561187e+00 -4.17496132e-01 -7.46624905e+00  4.16406065e+00
 -2.29966335e+00 -7.46624905e+00  4.16406065e+00 -2.29966335e+00 -6.48822130e+00
  1.25855004e+00 -3.65754685e+00 -6.48822130e+00  1.25855004e+00 -3.65754685e+00
 -4.48352424e+00  4.00515358e+00 -3.84881548e+00 -4.48352424e+00  4.00515358e+00
 -3.84881548e+00
Total Energy                               R     -6.136760787268963e+02
Alpha Orbital Energies                     R   N=         221
 -1.86294661e+01 -1.86293408e+01 -1.86126208e+01 -9.89595158e+00 -9.79510493e+00
 -9.77466593e+00 -9.76652198e+00 -9.75544559e+00 -9.73959133e+00 -9.73833865e+00
 -9.72843612e+00 -9.71865464e+00 -9.70498849e+00 -8.61786288e-01 -8.11767127e-01
 -7.58606963e-01 -6.21677916e-01 -5.91064877e-01 -5.37760696e-01 -5.23646350e-01
 -4.69836212e-01 -4.64206415e-01 -4.06404622e-01 -3.80308152e-01 -3.43975959e-01
 -3.41066640e-01 -3.12523267e-01 -2.85743572e-01 -2.75232311e-01 -2.65188096e-01
 -2.59635764e-01 -2.47736394e-01 -2.37377342e-01 -2.26963861e-01 -2.26572830e-01
 -2.26495455e-01 -2.06892722e-01 -2.03605311e-01 -2.02339356e-01 -1.93930225e-01
 -1.66089272e-01 -1.46801027e-01 -1.31333539e-01 -1.24071321e-01 -1.08382118e-01
 -9.42261884e-02 -7.32136123e-02 -6.70114582e-02 -2.60717215e-02  1.18924386e-01
  1.28400280e-01  1.48118805e-01  1.86546357e-01  2.04567445e-01  2.23414932e-01
  2.35689459e-01  2.42524212e-01  2.49209575e-01  2.55583217e-01  2.67665473e-01
  2.71500432e-01  2.83394542e-01  2.86880430e-01  2.98790066e-01  3.12133298e-01
  3.18082514e-01  3.19439695e-01  3.37377232e-01  3.51003232e-01  3.81601009e-01
  3.94906275e-01  4.17869551e-01  4.34067933e-01  4.54200374e-01  4.62993000e-01
  4.83823715e-01  5.33226189e-01  5.57753203e-01  5.58961897e-01  5.68951507e-01
  5.74183917e-01  5.83925609e-01  6.01509139e-01  6.19237903e-01  6.27672478e-01
  6.37285042e-01  6.48404529e-01  6.52036813e-01  6.57808569e-01  6.70936543e-01
  6.83861743e-01  6.89853391e-01  6.95453427e-01  7.01351605e-01  7.12516856e-01
  7.14481549e-01  7.33330796e-01  7.36711327e-01  7.41499538e-01  7.56993364e-01
  7.75686566e-01  7.84121206e-01  8.25658364e-01  8.33963897e-01  8.55064175e-01
  9.12698029e-01  9.60962692e-01  9.66650559e-01  9.79459369e-01  9.95042567e-01
  1.00211272e+00  1.00992942e+00  1.01678865e+00  1.02100519e+00  1.02824845e+00
  1.03209011e+00  1.03479877e+00  1.06276833e+00  1.06789603e+00  1.07379700e+00
  1.08327256e+00  1.09095675e+00  1.10040688e+00  1.12323355e+00  1.12944289e+00
  1.15668472e+00  1.17222538e+00  1.18000431e+00  1.19161405e+00  1.20700260e+00
  1.20931744e+00  1.22876980e+00  1.23554219e+00  1.30273350e+00  1.33420846e+00
  1.34694998e+00  1.37807390e+00  1.41613968e+00  1.44639279e+00  1.46858291e+00
  1.48496131e+00  1.49929478e+00  1.50035613e+00  1.52844690e+00  1.55085283e+00
  1.56826266e+00  1.59089737e+00  1.60058590e+00  1.61783884e+00  1.74745281e+00
  1.79235173e+00  1.82223000e+00  1.82673052e+00  1.84893290e+00  1.87041266e+00
  1.87916855e+00  1.89327228e+00  1.90015205e+00  1.92363250e+00  1.93726367e+00
  1.94777699e+00  1.95713400e+00  1.96739159e+00  1.98946123e+00  1.99894349e+00
  2.05295570e+00  2.07544505e+00  2.07892643e+00  2.08884032e+00  2.10645945e+00
  2.11111945e+00  2.13891007e+00  2.16421797e+00  2.17871714e+00  2.20799292e+00
  2.21822061e+00  2.24829927e+00  2.26383706e+00  2.27281400e+00  2.31965001e+00
  2.32722746e+00  2.34064894e+00  2.35873829e+00  2.38101280e+00  2.39152069e+00
  2.42392538e+00  2.46335832e+00  2.47660134e+00  2.50242490e+00  2.52410395e+00
  2.57677031e+00  2.59952315e+00  2.64176199e+00  2.67055946e+00  2.72889375e+00
  2.74592915e+00  2.76743924e+00  2.77637127e+00  2.83479460e+00  2.84924713e+00
  2.88633581e+00  2.91828543e+00  2.96110641e+00  3.02156265e+00  3.02609892e+00
  3.20909137e+00  3.22267635e+00  3.51172273e+00  1.29522442e+01  1.32962539e+01
  1.33846450e+01  1.34043251e+01  1.35599678e+01  1.35802783e+01  1.37690440e+01
  1.38766500e+01  1.39150696e+01  1.42801668e+01  2.50743964e+01  2.52319674e+01
  2.52707352e+01
Alpha MO coefficients                      R   N=       48841
  2.98889502e-07 -1.33526801e-06  9.83218744e-06 -1.05848931e-04 -2.77691269e-06
 -2.75786503e-06 -9.90944764e-07 -2.00258586e-05 -3.44860814e-05 -4.26121774e-05
 -8.62452034e-07 -8.32445693e-07 -3.13839598e-06 -1.87845860e-06 -9.40763108e-07
  3.32924444e-06 -1.42780172e-05  8.13207197e-05 -4.81557472e-04 -8.43987125e-06
  1.41362945e-05 -1.39110252e-05 -3.31455340e-05 -3.07747386e-04  4.24312152e-05
  3.08421603e-06 -8.71059826e-06 -8.27498217e-06  7.68983869e-06 -6.97008434e-06
  1.02131990e-06 -5.07886914e-06  1.48985556e-05  1.34206694e-04  7.26909771e-06
  9.11778101e-06 -3.90467235e-06 -1.59405787e-04  2.99763395e-04 -1.12909483e-04
 -2.43378032e-06  8.16643097e-06 -8.10845423e-07 -3.02881117e-06  1.03851424e-06
  5.19692249e-07 -2.02619988e-06 -7.67518432e-06  1.12983065e-04 -1.79693692e-05
  5.58641905e-06  9.81286986e-06  2.08774709e-04 -9.01292409e-05  5.42429985e-05
 -9.75750656e-06  4.18494965e-07 -5.74664409e-06 -3.80350082e-06 -6.18313325e-06
  4.12644455e-07 -1.88499952e-06  1.98242894e-05 -1.70322400e-04  3.59747074e-06
  3.41887285e-06 -3.16035819e-06  2.11464271e-05 -2.63454573e-04  6.99456296e-05
  1.53055924e-06 -3.07585138e-06  5.37396322e-06  5.37188171e-06  2.53406052e-06
 -3.76115111e-07  1.63844793e-06 -6.44139497e-06  9.20827430e-05 -2.28344658e-06
  2.88579556e-06 -6.62812501e-08 -2.78561076e-05  1.21076553e-04 -1.90388006e-05
  2.08152366e-06  7.28150488e-07 -3.51421293e-07  2.43729019e-06  9.26040326e-07
 -2.32091497e-07  1.02256693e-06 -7.97718119e-06  8.69788736e-05 -5.23944001e-06
 -3.76580723e-06 -2.86368317e-06  1.68628797e-05  1.42861841e-04 -4.95454503e-06
  1.39937859e-06  7.53254942e-07 -2.35876433e-07 -1.81209212e-06 -1.17059745e-06
  4.65684866e-03  3.09326281e-03  4.12251977e-04 -3.04015781e-04 -4.42354658e-06
 -1.04925085e-05 -3.18140168e-06  6.47590735e-05  6.37263625e-05  4.20778468e-05
  3.36583528e-06 -1.09265041e-06 -5.94516072e-06  2.64597159e-06 -9.79139791e-06
 -5.59582063e-05  4.46438131e-04 -4.19202701e-07  1.03230166e-04 -3.84796814e-06
  6.86853533e-06  2.32219322e-06 -2.12984534e-05  2.54702235e-06  4.81474265e-06
  5.34679624e-06 -2.65998095e-05  2.90519761e-07  4.42371681e-05  3.33808320e-06
  1.77932032e-06 -2.69930815e-05  1.11311926e-04 -2.10384763e-04  1.20481353e-03
 -3.37921339e-06 -3.38926717e-04 -2.02671065e-04  2.10213612e-03 -1.16485840e-03
  4.75388397e-03  3.82295024e-04  6.33550909e-05 -8.49570658e-05  3.87834896e-04
  1.45912218e-04 -3.09912274e-05  1.29957548e-04 -5.98872207e-04  3.91996668e-03
  1.17778242e-05 -4.88354679e-05  6.18885328e-05  5.75013733e-04 -1.00764727e-03
  7.94765812e-04 -6.57646994e-05  1.86231491e-06 -1.18890798e-04  4.45338641e-05
 -2.68693466e-05 -4.91221283e-05  1.30259712e-04  1.16848599e-03  8.83388966e-03
 -2.99374596e-04  1.17942045e-03 -1.25731648e-04 -3.78707864e-03  1.25077063e-02
 -2.79035062e-03  6.81565126e-04  5.37631838e-05  7.72051495e-04  3.09222502e-04
  3.78144591e-04 -2.10175300e-03 -1.20598528e-03 -8.31742488e-04  1.33731558e-03
  2.77725980e-05  1.40556226e-04  2.64674072e-04  5.69542555e-04 -2.72625955e-03
 -4.19263517e-04  1.48917807e-04 -7.27390691e-05  6.47944728e-04 -1.02527048e-04
  1.44997121e-04  6.35814649e-01  4.23059319e-01  5.28815938e-02 -3.09482622e-02
  5.72903188e-04 -1.85262601e-03  5.29644980e-04 -2.06186691e-03  6.41996079e-03
 -2.21937873e-03  2.62816069e-04 -8.97436343e-05  3.71094229e-04  4.09517030e-04
  3.08164038e-04 -3.35632993e-05 -2.60309034e-04 -2.31502134e-05 -5.94391301e-04
 -1.26941729e-04 -2.26263014e-04 -2.03876122e-04 -3.04003696e-04 -4.55219508e-05
 -2.10969369e-04 -4.17857560e-06  1.85404991e-05 -1.34360943e-04  1.62464665e-03
  7.34534654e-06  9.39826052e-05  2.87514724e-05  5.65615207e-04  1.31623758e-04
  1.68402691e-04  1.01345657e-06  9.67650776e-06  1.42246369e-05  1.02932576e-05
  1.71520555e-05 -5.03474084e-05  2.19542043e-04 -1.21016053e-03  1.29797434e-02
  8.77476068e-05  6.22379745e-05  8.04832406e-05  3.76522210e-03 -1.09091423e-02
  2.99961735e-03 -3.41354866e-05 -8.62644208e-06 -2.50479411e-04 -1.00685682e-04
 -3.46132330e-04  7.46502278e-05 -4.04473012e-04  1.77702434e-03  3.04105316e-03
  3.69628788e-04  1.08110548e-03  2.32385788e-04  1.07142436e-02  1.98716971e-02
  7.01922520e-03 -3.20814261e-04  4.14628520e-04  3.15946054e-06 -2.02679845e-04
  7.04097711e-05  1.99953732e-06 -9.63561272e-06  2.36865195e-04 -9.34263313e-03
 -2.44136780e-04 -3.10571478e-04 -1.62445557e-04 -1.74493486e-03 -2.05965114e-03
 -1.26838871e-03 -1.46552309e-05  2.83830639e-05 -1.55571083e-05 -1.26980916e-05
 -2.11702289e-05  7.14146944e-07 -2.20210983e-06 -1.44211667e-05  4.82847656e-04
 -3.74158014e-05 -1.34717234e-04 -4.74308607e-05 -3.93915808e-04  2.93403705e-03