Generated by Psi4
        SP                           UHF                     DEF2-MSVP
Number of atoms                            I               26
Charge                                     I               -1
Multiplicity                               I                1
Number of electrons                        I               98
Number of alpha electrons                  I               49
Number of beta electrons                   I               49
Number of basis functions                  I              221
Number of independent functions            I              221
Atomic numbers                             I   N=          26
           6           6           6           6           6           6
           6           8           1           1           1           1
           1           1           1           1           6           6
           6           8           8           1           1           1
           1           1
Nuclear charges                            R   N=          26
  6.00000000e+00  6.00000000e+00  6.00000000e+00  6.00000000e+00  6.00000000e+00
  6.00000000e+00  6.00000000e+00  8.00000000e+00  1.00000000e+00  1.00000000e+00
  1.00000000e+00  1.00000000e+00  1.00000000e+00  1.00000000e+00  1.00000000e+00
  1.00000000e+00  6.00000000e+00  6.00000000e+00  6.00000000e+00  8.00000000e+00
  8.00000000e+00  1.00000000e+00  1.00000000e+00  1.00000000e+00  1.00000000e+00
  1.00000000e+00
Current cartesian coordinates              R   N=          78
  1.69325348e+00 -7.93207628e+00 -1.65904620e+00  1.83876239e+00 -7.11432757e-01
 -1.50975783e+00  3.91935085e+00 -2.78685474e-01 -3.57714542e-02  1.11310755e+00
 -3.16807672e+00 -1.98974827e+00  2.49638708e+00 -5.21276039e+00 -1.04110575e+00
  5.30829955e+00 -2.23266229e+00  9.10981335e-01  4.60910089e+00 -4.70631379e+00
  4.21542268e-01  4.73949199e+00  2.08347218e+00  4.70675147e-01  8.22089732e-01
  8.55150201e-01 -2.31856061e+00 -5.30954174e-01 -3.53090414e+00 -3.14059148e+00
  6.96747909e+00 -1.86416569e+00  2.03914783e+00  6.21158864e+00  2.09858999e+00
  1.52892178e+00  3.16346040e+00 -9.26055375e+00 -1.09779754e+00  1.45703771e+00
 -8.04357012e+00 -3.69995041e+00  5.72592903e+00 -6.24077140e+00  1.15097655e+00
 -1.05108171e-01 -8.42958259e+00 -7.42874845e-01 -4.61654206e+00  2.20630438e+00
 -1.51044748e-01 -5.83163596e+00  2.96030510e+00 -2.66060104e+00 -4.53150438e+00
  4.35303326e+00  1.74057110e+00 -3.83986462e+00  3.91461680e+00  3.89674861e+00
 -5.19479825e+00  6.48842378e+00  1.11129230e+00 -5.78061335e+00  7.19089920e-01
  6.84214200e-01 -2.74949265e+00  1.39561187e+00 -4.17496132e-01 -7.46624905e+00
  4.16406065e+00 -2.29966335e+00 -6.48822130e+00  1.25855004e+00 -3.65754685e+00
 -4.48352424e+00  4.00515358e+00 -3.84881548e+00
Integer atomic weights                     I   N=          26
          12          12          12          12          12          12
          12          16           1           1           1           1
           1           1           1           1          12          12
          12          16          16           1           1           1
           1           1
Real atomic weights                        R   N=          26
  1.20000000e+01  1.20000000e+01  1.20000000e+01  1.20000000e+01  1.20000000e+01
  1.20000000e+01  1.20000000e+01  1.59949146e+01  1.00782503e+00  1.00782503e+00
  1.00782503e+00  1.00782503e+00  1.00782503e+00  1.00782503e+00  1.00782503e+00
  1.00782503e+00  1.20000000e+01  1.20000000e+01  1.20000000e+01  1.59949146e+01
  1.59949146e+01  1.00782503e+00  1.00782503e+00  1.00782503e+00  1.00782503e+00
  1.00782503e+00
Number of primitive shells                 I              221
Number of contracted shells                I              117
Pure/Cartesian d shells                    I                0
Pure/Cartesian f shells                    I                0
Highest angular momentum                   I                2
Largest degree of contraction              I                5
Shell types                                I   N=         117
           0           0           0           0           1           1
          -2           0           0           0           0           1
           1          -2           0           0           0           0
           1           1          -2           0           0           0
           0           1           1          -2           0           0
           0           0           1           1          -2           0
           0           0           0           1           1          -2
           0           0           0           0           1           1
          -2           0           0           0           0           1
           1          -2           0           0           0           0
           0           0           0           0           0           0
           0           0           0           0           0           0
           0           0           0           0           1           1
          -2           0           0           0           0           1
           1          -2           0           0           0           0
           1           1          -2           0           0           0
           0           1           1          -2           0           0
           0           0           1           1          -2           0
           0           0           0           0           0           0
           0           0           0
Number of primitives per shell             I   N=         117
           5           1           1           1           3           1
           1           5           1           1           1           3
           1           1           5           1           1           1
           3           1           1           5           1           1
           1           3           1           1           5           1
           1           1           3           1           1           5
           1           1           1           3           1           1
           5           1           1           1           3           1
           1           5           1           1           1           3
           1           1           3           1           3           1
           3           1           3           1           3           1
           3           1           3           1           3           1
           5           1           1           1           3           1
           1           5           1           1           1           3
           1           1           5           1           1           1
           3           1           1           5           1           1
           1           3           1           1           5           1
           1           1           3           1           1           3
           1           3           1           3           1           3
           1           3           1
Shell to atom map                          I   N=         117
           1           1           1           1           1           1
           1           2           2           2           2           2
           2           2           3           3           3           3
           3           3           3           4           4           4
           4           4           4           4           5           5
           5           5           5           5           5           6
           6           6           6           6           6           6
           7           7           7           7           7           7
           7           8           8           8           8           8
           8           8           9           9          10          10
          11          11          12          12          13          13
          14          14          15          15          16          16
          17          17          17          17          17          17
          17          18          18          18          18          18
          18          18          19          19          19          19
          19          19          19          20          20          20
          20          20          20          20          21          21
          21          21          21          21          21          22
          22          23          23          24          24          25
          25          26          26
Primitive exponents                        R   N=         221
  3.62386130e+03  5.44046210e+02  1.23743380e+02  3.47632090e+01  1.09333330e+01
  3.57447650e+00  5.74832450e-01  1.73036400e-01  9.44328190e+00  2.00179860e+00
  5.46297180e-01  1.52026840e-01  8.00000000e-01  3.62386130e+03  5.44046210e+02
  1.23743380e+02  3.47632090e+01  1.09333330e+01  3.57447650e+00  5.74832450e-01
  1.73036400e-01  9.44328190e+00  2.00179860e+00  5.46297180e-01  1.52026840e-01
  8.00000000e-01  3.62386130e+03  5.44046210e+02  1.23743380e+02  3.47632090e+01
  1.09333330e+01  3.57447650e+00  5.74832450e-01  1.73036400e-01  9.44328190e+00
  2.00179860e+00  5.46297180e-01  1.52026840e-01  8.00000000e-01  3.62386130e+03
  5.44046210e+02  1.23743380e+02  3.47632090e+01  1.09333330e+01  3.57447650e+00
  5.74832450e-01  1.73036400e-01  9.44328190e+00  2.00179860e+00  5.46297180e-01
  1.52026840e-01  8.00000000e-01  3.62386130e+03  5.44046210e+02  1.23743380e+02
  3.47632090e+01  1.09333330e+01  3.57447650e+00  5.74832450e-01  1.73036400e-01
  9.44328190e+00  2.00179860e+00  5.46297180e-01  1.52026840e-01  8.00000000e-01
  3.62386130e+03  5.44046210e+02  1.23743380e+02  3.47632090e+01  1.09333330e+01
  3.57447650e+00  5.74832450e-01  1.73036400e-01  9.44328190e+00  2.00179860e+00
  5.46297180e-01  1.52026840e-01  8.00000000e-01  3.62386130e+03  5.44046210e+02
  1.23743380e+02  3.47632090e+01  1.09333330e+01  3.57447650e+00  5.74832450e-01
  1.73036400e-01  9.44328190e+00  2.00179860e+00  5.46297180e-01  1.52026840e-01
  8.00000000e-01  6.77337470e+03  1.01679700e+03  2.31267380e+02  6.50084540e+01
  2.04998080e+01  6.71606640e+00  1.14715720e+00  3.34232510e-01  1.76942640e+01
  3.85360270e+00  1.04674650e+00  2.75860430e-01  8.00000000e-01  1.87354104e+01
  2.82565040e+00  6.40134700e-01  1.75607460e-01  1.87354104e+01  2.82565040e+00
  6.40134700e-01  1.75607460e-01  1.87354104e+01  2.82565040e+00  6.40134700e-01
  1.75607460e-01  1.87354104e+01  2.82565040e+00  6.40134700e-01  1.75607460e-01
  1.87354104e+01  2.82565040e+00  6.40134700e-01  1.75607460e-01  1.87354104e+01
  2.82565040e+00  6.40134700e-01  1.75607460e-01  1.87354104e+01  2.82565040e+00
  6.40134700e-01  1.75607460e-01  1.87354104e+01  2.82565040e+00  6.40134700e-01
  1.75607460e-01  3.62386130e+03  5.44046210e+02  1.23743380e+02  3.47632090e+01
  1.09333330e+01  3.57447650e+00  5.74832450e-01  1.73036400e-01  9.44328190e+00
  2.00179860e+00  5.46297180e-01  1.52026840e-01  8.00000000e-01  3.62386130e+03
  5.44046210e+02  1.23743380e+02  3.47632090e+01  1.09333330e+01  3.57447650e+00
  5.74832450e-01  1.73036400e-01  9.44328190e+00  2.00179860e+00  5.46297180e-01
  1.52026840e-01  8.00000000e-01  3.62386130e+03  5.44046210e+02  1.23743380e+02
  3.47632090e+01  1.09333330e+01  3.57447650e+00  5.74832450e-01  1.73036400e-01
  9.44328190e+00  2.00179860e+00  5.46297180e-01  1.52026840e-01  8.00000000e-01
  6.77337470e+03  1.01679700e+03  2.31267380e+02  6.50084540e+01  2.04998080e+01
  6.71606640e+00  1.14715720e+00  3.34232510e-01  1.76942640e+01  3.85360270e+00
  1.04674650e+00  2.75860430e-01  8.00000000e-01  6.77337470e+03  1.01679700e+03
  2.31267380e+02  6.50084540e+01  2.04998080e+01  6.71606640e+00  1.14715720e+00
  3.34232510e-01  1.76942640e+01  3.85360270e+00  1.04674650e+00  2.75860430e-01
  8.00000000e-01  1.87354104e+01  2.82565040e+00  6.40134700e-01  1.75607460e-01
  1.87354104e+01  2.82565040e+00  6.40134700e-01  1.75607460e-01  1.87354104e+01
  2.82565040e+00  6.40134700e-01  1.75607460e-01  1.87354104e+01  2.82565040e+00
  6.40134700e-01  1.75607460e-01  1.87354104e+01  2.82565040e+00  6.40134700e-01
  1.75607460e-01
Contraction coefficients                   R   N=         221
  2.26333124e-03  1.73452633e-02  8.60412011e-02  3.02222721e-01  6.89843648e-01
  1.00000000e+00  1.00000000e+00  1.00000000e+00  5.70590790e-02  3.13458733e-01
  7.59988164e-01  1.00000000e+00  1.00000000e+00  2.26333124e-03  1.73452633e-02
  8.60412011e-02  3.02222721e-01  6.89843648e-01  1.00000000e+00  1.00000000e+00
  1.00000000e+00  5.70590790e-02  3.13458733e-01  7.59988164e-01  1.00000000e+00
  1.00000000e+00  2.26333124e-03  1.73452633e-02  8.60412011e-02  3.02222721e-01
  6.89843648e-01  1.00000000e+00  1.00000000e+00  1.00000000e+00  5.70590790e-02
  3.13458733e-01  7.59988164e-01  1.00000000e+00  1.00000000e+00  2.26333124e-03
  1.73452633e-02  8.60412011e-02  3.02222721e-01  6.89843648e-01  1.00000000e+00
  1.00000000e+00  1.00000000e+00  5.70590790e-02  3.13458733e-01  7.59988164e-01
  1.00000000e+00  1.00000000e+00  2.26333124e-03  1.73452633e-02  8.60412011e-02
  3.02222721e-01  6.89843648e-01  1.00000000e+00  1.00000000e+00  1.00000000e+00
  5.70590790e-02  3.13458733e-01  7.59988164e-01  1.00000000e+00  1.00000000e+00
  2.26333124e-03  1.73452633e-02  8.60412011e-02  3.02222721e-01  6.89843648e-01
  1.00000000e+00  1.00000000e+00  1.00000000e+00  5.70590790e-02  3.13458733e-01
  7.59988164e-01  1.00000000e+00  1.00000000e+00  2.26333124e-03  1.73452633e-02
  8.60412011e-02  3.02222721e-01  6.89843648e-01  1.00000000e+00  1.00000000e+00
  1.00000000e+00  5.70590790e-02  3.13458733e-01  7.59988164e-01  1.00000000e+00
  1.00000000e+00  2.18470467e-03  1.67609392e-02  8.35437088e-02  2.97707247e-01
  6.95621078e-01  1.00000000e+00  1.00000000e+00  1.00000000e+00  6.27665555e-02
  3.33746549e-01  7.40926208e-01  1.00000000e+00  1.00000000e+00  3.34854847e-02
  2.34721870e-01  8.13770283e-01  1.00000000e+00  3.34854847e-02  2.34721870e-01
  8.13770283e-01  1.00000000e+00  3.34854847e-02  2.34721870e-01  8.13770283e-01
  1.00000000e+00  3.34854847e-02  2.34721870e-01  8.13770283e-01  1.00000000e+00
  3.34854847e-02  2.34721870e-01  8.13770283e-01  1.00000000e+00  3.34854847e-02
  2.34721870e-01  8.13770283e-01  1.00000000e+00  3.34854847e-02  2.34721870e-01
  8.13770283e-01  1.00000000e+00  3.34854847e-02  2.34721870e-01  8.13770283e-01
  1.00000000e+00  2.26333124e-03  1.73452633e-02  8.60412011e-02  3.02222721e-01
  6.89843648e-01  1.00000000e+00  1.00000000e+00  1.00000000e+00  5.70590790e-02
  3.13458733e-01  7.59988164e-01  1.00000000e+00  1.00000000e+00  2.26333124e-03
  1.73452633e-02  8.60412011e-02  3.02222721e-01  6.89843648e-01  1.00000000e+00
  1.00000000e+00  1.00000000e+00  5.70590790e-02  3.13458733e-01  7.59988164e-01
  1.00000000e+00  1.00000000e+00  2.26333124e-03  1.73452633e-02  8.60412011e-02
  3.02222721e-01  6.89843648e-01  1.00000000e+00  1.00000000e+00  1.00000000e+00
  5.70590790e-02  3.13458733e-01  7.59988164e-01  1.00000000e+00  1.00000000e+00
  2.18470467e-03  1.67609392e-02  8.35437088e-02  2.97707247e-01  6.95621078e-01
  1.00000000e+00  1.00000000e+00  1.00000000e+00  6.27665555e-02  3.33746549e-01
  7.40926208e-01  1.00000000e+00  1.00000000e+00  2.18470467e-03  1.67609392e-02
  8.35437088e-02  2.97707247e-01  6.95621078e-01  1.00000000e+00  1.00000000e+00
  1.00000000e+00  6.27665555e-02  3.33746549e-01  7.40926208e-01  1.00000000e+00
  1.00000000e+00  3.34854847e-02  2.34721870e-01  8.13770283e-01  1.00000000e+00
  3.34854847e-02  2.34721870e-01  8.13770283e-01  1.00000000e+00  3.34854847e-02
  2.34721870e-01  8.13770283e-01  1.00000000e+00  3.34854847e-02  2.34721870e-01
  8.13770283e-01  1.00000000e+00  3.34854847e-02  2.34721870e-01  8.13770283e-01
  1.00000000e+00
Coordinates of each shell                  R   N=         351
  1.69325348e+00 -7.93207628e+00 -1.65904620e+00  1.69325348e+00 -7.93207628e+00
 -1.65904620e+00  1.69325348e+00 -7.93207628e+00 -1.65904620e+00  1.69325348e+00
 -7.93207628e+00 -1.65904620e+00  1.69325348e+00 -7.93207628e+00 -1.65904620e+00
  1.69325348e+00 -7.93207628e+00 -1.65904620e+00  1.69325348e+00 -7.93207628e+00
 -1.65904620e+00  1.83876239e+00 -7.11432757e-01 -1.50975783e+00  1.83876239e+00
 -7.11432757e-01 -1.50975783e+00  1.83876239e+00 -7.11432757e-01 -1.50975783e+00
  1.83876239e+00 -7.11432757e-01 -1.50975783e+00  1.83876239e+00 -7.11432757e-01
 -1.50975783e+00  1.83876239e+00 -7.11432757e-01 -1.50975783e+00  1.83876239e+00
 -7.11432757e-01 -1.50975783e+00  3.91935085e+00 -2.78685474e-01 -3.57714542e-02
  3.91935085e+00 -2.78685474e-01 -3.57714542e-02  3.91935085e+00 -2.78685474e-01
 -3.57714542e-02  3.91935085e+00 -2.78685474e-01 -3.57714542e-02  3.91935085e+00
 -2.78685474e-01 -3.57714542e-02  3.91935085e+00 -2.78685474e-01 -3.57714542e-02
  3.91935085e+00 -2.78685474e-01 -3.57714542e-02  1.11310755e+00 -3.16807672e+00
 -1.98974827e+00  1.11310755e+00 -3.16807672e+00 -1.98974827e+00  1.11310755e+00
 -3.16807672e+00 -1.98974827e+00  1.11310755e+00 -3.16807672e+00 -1.98974827e+00
  1.11310755e+00 -3.16807672e+00 -1.98974827e+00  1.11310755e+00 -3.16807672e+00
 -1.98974827e+00  1.11310755e+00 -3.16807672e+00 -1.98974827e+00  2.49638708e+00
 -5.21276039e+00 -1.04110575e+00  2.49638708e+00 -5.21276039e+00 -1.04110575e+00
  2.49638708e+00 -5.21276039e+00 -1.04110575e+00  2.49638708e+00 -5.21276039e+00
 -1.04110575e+00  2.49638708e+00 -5.21276039e+00 -1.04110575e+00  2.49638708e+00
 -5.21276039e+00 -1.04110575e+00  2.49638708e+00 -5.21276039e+00 -1.04110575e+00
  5.30829955e+00 -2.23266229e+00  9.10981335e-01  5.30829955e+00 -2.23266229e+00
  9.10981335e-01  5.30829955e+00 -2.23266229e+00  9.10981335e-01  5.30829955e+00
 -2.23266229e+00  9.10981335e-01  5.30829955e+00 -2.23266229e+00  9.10981335e-01
  5.30829955e+00 -2.23266229e+00  9.10981335e-01  5.30829955e+00 -2.23266229e+00
  9.10981335e-01  4.60910089e+00 -4.70631379e+00  4.21542268e-01  4.60910089e+00
 -4.70631379e+00  4.21542268e-01  4.60910089e+00 -4.70631379e+00  4.21542268e-01
  4.60910089e+00 -4.70631379e+00  4.21542268e-01  4.60910089e+00 -4.70631379e+00
  4.21542268e-01  4.60910089e+00 -4.70631379e+00  4.21542268e-01  4.60910089e+00
 -4.70631379e+00  4.21542268e-01  4.73949199e+00  2.08347218e+00  4.70675147e-01
  4.73949199e+00  2.08347218e+00  4.70675147e-01  4.73949199e+00  2.08347218e+00
  4.70675147e-01  4.73949199e+00  2.08347218e+00  4.70675147e-01  4.73949199e+00
  2.08347218e+00  4.70675147e-01  4.73949199e+00  2.08347218e+00  4.70675147e-01
  4.73949199e+00  2.08347218e+00  4.70675147e-01  8.22089732e-01  8.55150201e-01
 -2.31856061e+00  8.22089732e-01  8.55150201e-01 -2.31856061e+00 -5.30954174e-01
 -3.53090414e+00 -3.14059148e+00 -5.30954174e-01 -3.53090414e+00 -3.14059148e+00
  6.96747909e+00 -1.86416569e+00  2.03914783e+00  6.96747909e+00 -1.86416569e+00
  2.03914783e+00  6.21158864e+00  2.09858999e+00  1.52892178e+00  6.21158864e+00
  2.09858999e+00  1.52892178e+00  3.16346040e+00 -9.26055375e+00 -1.09779754e+00
  3.16346040e+00 -9.26055375e+00 -1.09779754e+00  1.45703771e+00 -8.04357012e+00
 -3.69995041e+00  1.45703771e+00 -8.04357012e+00 -3.69995041e+00  5.72592903e+00
 -6.24077140e+00  1.15097655e+00  5.72592903e+00 -6.24077140e+00  1.15097655e+00
 -1.05108171e-01 -8.42958259e+00 -7.42874845e-01 -1.05108171e-01 -8.42958259e+00
 -7.42874845e-01 -4.61654206e+00  2.20630438e+00 -1.51044748e-01 -4.61654206e+00
  2.20630438e+00 -1.51044748e-01 -4.61654206e+00  2.20630438e+00 -1.51044748e-01
 -4.61654206e+00  2.20630438e+00 -1.51044748e-01 -4.61654206e+00  2.20630438e+00
 -1.51044748e-01 -4.61654206e+00  2.20630438e+00 -1.51044748e-01 -4.61654206e+00
  2.20630438e+00 -1.51044748e-01 -5.83163596e+00  2.96030510e+00 -2.66060104e+00
 -5.83163596e+00  2.96030510e+00 -2.66060104e+00 -5.83163596e+00  2.96030510e+00
 -2.66060104e+00 -5.83163596e+00  2.96030510e+00 -2.66060104e+00 -5.83163596e+00
  2.96030510e+00 -2.66060104e+00 -5.83163596e+00  2.96030510e+00 -2.66060104e+00
 -5.83163596e+00  2.96030510e+00 -2.66060104e+00 -4.53150438e+00  4.35303326e+00
  1.74057110e+00 -4.53150438e+00  4.35303326e+00  1.74057110e+00 -4.53150438e+00
  4.35303326e+00  1.74057110e+00 -4.53150438e+00  4.35303326e+00  1.74057110e+00
 -4.53150438e+00  4.35303326e+00  1.74057110e+00 -4.53150438e+00  4.35303326e+00
  1.74057110e+00 -4.53150438e+00  4.35303326e+00  1.74057110e+00 -3.83986462e+00
  3.91461680e+00  3.89674861e+00 -3.83986462e+00  3.91461680e+00  3.89674861e+00
 -3.83986462e+00  3.91461680e+00  3.89674861e+00 -3.83986462e+00  3.91461680e+00
  3.89674861e+00 -3.83986462e+00  3.91461680e+00  3.89674861e+00 -3.83986462e+00
  3.91461680e+00  3.89674861e+00 -3.83986462e+00  3.91461680e+00  3.89674861e+00
 -5.19479825e+00  6.48842378e+00  1.11129230e+00 -5.19479825e+00  6.48842378e+00
  1.11129230e+00 -5.19479825e+00  6.48842378e+00  1.11129230e+00 -5.19479825e+00
  6.48842378e+00  1.11129230e+00 -5.19479825e+00  6.48842378e+00  1.11129230e+00
 -5.19479825e+00  6.48842378e+00  1.11129230e+00 -5.19479825e+00  6.48842378e+00
  1.11129230e+00 -5.78061335e+00  7.19089920e-01  6.84214200e-01 -5.78061335e+00
  7.19089920e-01  6.84214200e-01 -2.74949265e+00  1.39561187e+00 -4.17496132e-01
 -2.74949265e+00  1.39561187e+00 -4.17496132e-01 -7.46624905e+00  4.16406065e+00
 -2.29966335e+00 -7.46624905e+00  4.16406065e+00 -2.29966335e+00 -6.48822130e+00
  1.25855004e+00 -3.65754685e+00 -6.48822130e+00  1.25855004e+00 -3.65754685e+00
 -4.48352424e+00  4.00515358e+00 -3.84881548e+00 -4.48352424e+00  4.00515358e+00
 -3.84881548e+00
Total Energy                               R     -6.137417237826803e+02
Alpha Orbital Energies                     R   N=         221
 -1.86147355e+01 -1.85738977e+01 -1.85713710e+01 -9.82512963e+00 -9.78901453e+00
 -9.78314963e+00 -9.76173447e+00 -9.75694215e+00 -9.75686595e+00 -9.75230028e+00
 -9.74845965e+00 -9.74167392e+00 -9.72549020e+00 -8.15158277e-01 -8.11780320e-01
 -7.12771732e-01 -6.41238133e-01 -5.68383292e-01 -5.58488567e-01 -5.37372508e-01
 -4.81552109e-01 -4.45802041e-01 -4.22183415e-01 -3.92481187e-01 -3.51388462e-01
 -3.11360145e-01 -2.94583677e-01 -2.86730792e-01 -2.77099680e-01 -2.52406476e-01
 -2.50280692e-01 -2.50240636e-01 -2.37923782e-01 -2.25941682e-01 -2.19821912e-01
 -2.15325977e-01 -2.08562861e-01 -1.99497651e-01 -1.84042080e-01 -1.79866802e-01
 -1.70759701e-01 -1.67766196e-01 -1.40100508e-01 -1.38553184e-01 -8.49364170e-02
 -6.78425387e-02 -5.54011419e-02 -4.10596646e-02 -2.75755571e-02  1.06896233e-01
  1.27979034e-01  1.68981864e-01  1.94790966e-01  1.96475327e-01  2.13373193e-01
  2.32466403e-01  2.50628561e-01  2.51018611e-01  2.58334749e-01  2.64148555e-01
  2.69971434e-01  2.74338512e-01  2.88099405e-01  2.96772579e-01  3.02689897e-01
  3.08774024e-01  3.20399407e-01  3.39693515e-01  3.68921020e-01  3.75917794e-01
  3.97295079e-01  4.12967932e-01  4.40682774e-01  4.46522139e-01  4.72942763e-01
  4.90623809e-01  5.41250908e-01  5.46208818e-01  5.52631876e-01  5.61014318e-01
  5.78571145e-01  5.89949037e-01  5.98125587e-01  6.16419721e-01  6.24062759e-01
  6.42771269e-01  6.50448316e-01  6.52830416e-01  6.70537287e-01  6.72070599e-01
  6.84737353e-01  6.89697846e-01  6.90318178e-01  6.96119111e-01  7.13724074e-01
  7.15541257e-01  7.36269517e-01  7.37153267e-01  7.42178702e-01  7.60081208e-01
  7.70566129e-01  7.76226965e-01  8.09432210e-01  8.28534042e-01  8.79148848e-01
  9.03717926e-01  9.55141826e-01  9.81753354e-01  9.90436128e-01  1.00236574e+00
  1.00658617e+00  1.00869873e+00  1.01564070e+00  1.02288302e+00  1.02822042e+00
  1.04169035e+00  1.04612905e+00  1.04866412e+00  1.05657267e+00  1.06992834e+00
  1.08842674e+00  1.09487835e+00  1.11045733e+00  1.11820860e+00  1.14243945e+00
  1.15026304e+00  1.16130484e+00  1.17238484e+00  1.20247782e+00  1.21686009e+00
  1.23056916e+00  1.23905751e+00  1.25805356e+00  1.28720567e+00  1.32561044e+00
  1.33764259e+00  1.37378354e+00  1.43040368e+00  1.44771299e+00  1.45609988e+00
  1.47565524e+00  1.48157141e+00  1.53658218e+00  1.53737455e+00  1.54857867e+00
  1.56187594e+00  1.58815281e+00  1.60025196e+00  1.61775313e+00  1.78341705e+00
  1.81219980e+00  1.82394156e+00  1.82555354e+00  1.85213333e+00  1.86736504e+00
  1.88663268e+00  1.91240365e+00  1.91423974e+00  1.92593590e+00  1.93788095e+00
  1.94529872e+00  1.95504740e+00  1.98228541e+00  1.99807981e+00  2.01506953e+00
  2.06591294e+00  2.07584810e+00  2.09147256e+00  2.10281823e+00  2.10817903e+00
  2.14432264e+00  2.14908358e+00  2.17374702e+00  2.19113022e+00  2.20347644e+00
  2.21123190e+00  2.23231763e+00  2.24631020e+00  2.29594834e+00  2.31336514e+00
  2.31764496e+00  2.34560655e+00  2.35894853e+00  2.37807513e+00  2.38257496e+00
  2.40025522e+00  2.43483436e+00  2.49169760e+00  2.51359619e+00  2.54747178e+00
  2.59517503e+00  2.61651378e+00  2.63570052e+00  2.65593604e+00  2.70966397e+00
  2.75195419e+00  2.76460721e+00  2.78901197e+00  2.81855338e+00  2.89110376e+00
  2.89552345e+00  2.92631601e+00  2.93666485e+00  3.01894763e+00  3.06254060e+00
  3.20143245e+00  3.26526927e+00  3.49660083e+00  1.29341614e+01  1.33179506e+01
  1.33633401e+01  1.33939338e+01  1.35335978e+01  1.36121401e+01  1.38134907e+01
  1.38665818e+01  1.38891362e+01  1.42681786e+01  2.51225102e+01  2.52435602e+01
  2.53169203e+01
Alpha MO coefficients                      R   N=       48841
 -4.17579633e-06  1.85439278e-05 -1.34517238e-04  1.62785268e-03  7.46756826e-06
  9.43019495e-05  2.89292843e-05  5.68331649e-04  1.30631734e-04  1.69245937e-04
  1.03043908e-06  9.79525558e-06  1.43468754e-05  1.04379431e-05  1.73342770e-05
 -5.04450070e-05  2.19951391e-04 -1.21348215e-03  1.30264991e-02  8.84103265e-05
  6.28955112e-05  8.09628443e-05  3.78204595e-03 -1.09210716e-02  3.01273598e-03
 -3.42139715e-05 -8.76971995e-06 -2.50524827e-04 -1.01031597e-04 -3.46170701e-04
  7.48634816e-05 -4.05523666e-04  1.77856369e-03  3.06626220e-03  3.70725624e-04
  1.08441223e-03  2.33109582e-04  1.07693844e-02  1.98848447e-02  7.05639313e-03
 -3.22565469e-04  4.15750541e-04  3.80149802e-06 -2.04611297e-04  7.15152065e-05
  2.01540160e-06 -9.69557453e-06  2.37934690e-04 -9.36235258e-03 -2.44728930e-04
 -3.11503985e-04 -1.62645220e-04 -1.74957635e-03 -2.05756839e-03 -1.27258166e-03
 -1.45497960e-05  2.83259751e-05 -1.56693463e-05 -1.24754054e-05 -2.13022149e-05
  7.39484990e-07 -2.31407965e-06 -1.35618269e-05  4.73280226e-04 -3.76799725e-05
 -1.35223455e-04 -4.77356230e-05 -4.05134657e-04  2.94074227e-03 -1.00596143e-04
 -2.44062794e-05  6.05846827e-05 -3.77615886e-05  5.95157676e-06 -5.11441423e-05
 -3.74041663e-05  1.63293314e-04 -7.00878808e-04  5.90992920e-03 -1.89694889e-05
 -7.63249220e-05 -1.59054500e-05 -6.49077048e-03 -8.74758449e-03 -4.30702218e-03
  9.36598756e-05  2.15042085e-04  1.09435275e-04  3.72304877e-04  1.58493125e-04
  7.80196628e-07 -3.34397779e-06  1.05271804e-04 -7.65040544e-03  7.46639464e-05
 -3.28795846e-04  4.14661822e-05 -1.45065270e-03 -3.21774040e-03 -1.07400225e-03
 -3.45175784e-05  6.89641666e-05  1.42042693e-05 -8.53927384e-06  2.64300288e-05
  6.35803737e-01  4.22907062e-01  5.41071624e-02 -3.49066321e-02  4.00130934e-04
 -1.58194735e-03  3.55334523e-04  8.87491279e-04  7.49961586e-03  3.07403750e-04
  3.74456169e-04 -2.59244646e-04 -2.86396737e-04  4.65365672e-04 -4.81271019e-04
  3.80717222e-05  4.70063526e-03  1.89312831e-04 -1.44022813e-04  1.11350151e-04
  3.85935905e-03  1.55299806e-03  1.38287976e-04 -1.48905040e-05 -5.05666153e-04
 -1.36740716e-05 -1.08242696e-04  1.83339392e-04  2.14919604e-04 -1.51182231e-05
  7.30158363e-05  2.57109028e-06 -1.14977999e-05  7.92535985e-05 -3.87304783e-04
 -1.97418375e-07  1.73558766e-05 -1.95693348e-05 -2.45834715e-04 -2.48766273e-05
  1.82542214e-04  8.69499686e-06 -1.49673369e-06  3.20095050e-06 -1.07284985e-05
  2.11261272e-05 -5.79706857e-08  4.30938859e-07 -1.42064092e-05  2.09142191e-04
  2.73346733e-05 -1.73669551e-05  1.40705498e-05  1.07616345e-06  7.80238851e-05
  4.54636113e-06 -7.16742354e-06  7.05316898e-06  1.31270142e-06  3.63117083e-06
 -4.32328554e-06  7.82222310e-07 -3.27987542e-06  1.60446942e-05 -4.16438563e-05
  6.80952867e-06 -5.62747700e-06 -1.03090742e-05 -2.97781896e-06  7.56584980e-05
 -9.83477099e-05 -7.98353853e-07 -7.06674757e-06 -2.06277993e-07 -8.39491558e-07
 -4.13153605e-06 -2.39984072e-05 -9.94934509e-06 -2.98903566e-05  9.67536987e-05
  3.02374667e-06  5.40520411e-07 -2.35021098e-06 -1.69816874e-05 -3.26700498e-06
 -1.66888143e-05  1.01178222e-06  4.04427203e-07  9.10859283e-07  1.70292012e-06
  2.00284048e-07  1.39310434e-05  5.53644231e-06  1.85270868e-05 -6.23012419e-05
 -2.21794895e-06  1.25580986e-06 -1.30434689e-06  1.65985924e-06  8.58961703e-06
  1.37697869e-05  1.96761370e-06 -8.81985927e-07 -2.57246504e-06 -8.19019707e-07
 -2.83699920e-06  1.25191032e-05 -1.07088560e-04 -2.32393981e-05  5.74891600e-04
 -1.36022574e-06 -1.04447951e-04 -1.01735720e-05  3.23374998e-05  2.65297087e-05
 -1.06355563e-04 -1.67007057e-07  7.61606947e-07 -7.15860990e-06  9.72088270e-05
  2.74311730e-06  5.74286946e-06 -5.31292996e-07  3.21999047e-05  1.42000791e-05
  4.52141697e-05 -5.38230933e-07  9.89515344e-07  3.55316570e-06  2.80155924e-06
  1.94821420e-06 -4.49628948e-06  1.90515414e-05 -9.07517381e-05  2.37755112e-04
  4.49669540e-05 -1.50233770e-05 -1.72808679e-05 -2.95105242e-04  6.01506619e-05
  4.28059415e-06 -5.58909706e-06 -4.38430150e-06  3.02916366e-06 -2.21751077e-05
  8.03928319e-08 -1.63230619e-06  7.17470401e-06 -4.90660198e-05  3.77441194e-04
 -1.67780750e-05  9.78661134e-07  1.12361742e-05  1.63111298e-04 -2.94891768e-04
 -6.65901216e-05  4.94910556e-06  8.33364758e-06 -4.13523903e-07 -3.70419928e-08
 -3.20527408e-06  1.72389978e-07 -1.10846205e-06  3.11854790e-05 -2.92055477e-04
  1.50379966e-05 -8.69246989e-06 -1.40386213e-05 -7.59038270e-05 -6.09228317e-05
 -5.29370371e-05  6.90655699e-06 -6.67433366e-06 -3.03615733e-06  9.61777967e-06
  1.26732662e-05  8.08218387e-08 -3.15171581e-07 -4.24004322e-06 -1.05310066e-05
 -7.11028563e-06 -4.87943860e-06  1.48696424e-06 -4.87787248e-05  1.93498917e-04