Generated by Psi4
        SP                           UHF                     DEF2-MSVP
Number of atoms                            I               26
Charge                                     I               -1
Multiplicity                               I                1
Number of electrons                        I               98
Number of alpha electrons                  I               49
Number of beta electrons                   I               49
Number of basis functions                  I              221
Number of independent functions            I              221
Atomic numbers                             I   N=          26
           6           6           6           6           6           6
           6           8           1           1           1           1
           1           1           1           1           6           6
           6           8           8           1           1           1
           1           1
Nuclear charges                            R   N=          26
  6.00000000e+00  6.00000000e+00  6.00000000e+00  6.00000000e+00  6.00000000e+00
  6.00000000e+00  6.00000000e+00  8.00000000e+00  1.00000000e+00  1.00000000e+00
  1.00000000e+00  1.00000000e+00  1.00000000e+00  1.00000000e+00  1.00000000e+00
  1.00000000e+00  6.00000000e+00  6.00000000e+00  6.00000000e+00  8.00000000e+00
  8.00000000e+00  1.00000000e+00  1.00000000e+00  1.00000000e+00  1.00000000e+00
  1.00000000e+00
Current cartesian coordinates              R   N=          78
  1.69325348e+00 -7.93207628e+00 -1.65904620e+00  1.83876239e+00 -7.11432757e-01
 -1.50975783e+00  3.91935085e+00 -2.78685474e-01 -3.57714542e-02  1.11310755e+00
 -3.16807672e+00 -1.98974827e+00  2.49638708e+00 -5.21276039e+00 -1.04110575e+00
  5.30829955e+00 -2.23266229e+00  9.10981335e-01  4.60910089e+00 -4.70631379e+00
  4.21542268e-01  4.73949199e+00  2.08347218e+00  4.70675147e-01  8.22089732e-01
  8.55150201e-01 -2.31856061e+00 -5.30954174e-01 -3.53090414e+00 -3.14059148e+00
  6.96747909e+00 -1.86416569e+00  2.03914783e+00  6.21158864e+00  2.09858999e+00
  1.52892178e+00  3.16346040e+00 -9.26055375e+00 -1.09779754e+00  1.45703771e+00
 -8.04357012e+00 -3.69995041e+00  5.72592903e+00 -6.24077140e+00  1.15097655e+00
 -1.05108171e-01 -8.42958259e+00 -7.42874845e-01 -4.61654206e+00  2.20630438e+00
 -1.51044748e-01 -5.83163596e+00  2.96030510e+00 -2.66060104e+00 -4.53150438e+00
  4.35303326e+00  1.74057110e+00 -3.83986462e+00  3.91461680e+00  3.89674861e+00
 -5.19479825e+00  6.48842378e+00  1.11129230e+00 -5.78061335e+00  7.19089920e-01
  6.84214200e-01 -2.74949265e+00  1.39561187e+00 -4.17496132e-01 -7.46624905e+00
  4.16406065e+00 -2.29966335e+00 -6.48822130e+00  1.25855004e+00 -3.65754685e+00
 -4.48352424e+00  4.00515358e+00 -3.84881548e+00
Integer atomic weights                     I   N=          26
          12          12          12          12          12          12
          12          16           1           1           1           1
           1           1           1           1          12          12
          12          16          16           1           1           1
           1           1
Real atomic weights                        R   N=          26
  1.20000000e+01  1.20000000e+01  1.20000000e+01  1.20000000e+01  1.20000000e+01
  1.20000000e+01  1.20000000e+01  1.59949146e+01  1.00782503e+00  1.00782503e+00
  1.00782503e+00  1.00782503e+00  1.00782503e+00  1.00782503e+00  1.00782503e+00
  1.00782503e+00  1.20000000e+01  1.20000000e+01  1.20000000e+01  1.59949146e+01
  1.59949146e+01  1.00782503e+00  1.00782503e+00  1.00782503e+00  1.00782503e+00
  1.00782503e+00
Number of primitive shells                 I              221
Number of contracted shells                I              117
Pure/Cartesian d shells                    I                0
Pure/Cartesian f shells                    I                0
Highest angular momentum                   I                2
Largest degree of contraction              I                5
Shell types                                I   N=         117
           0           0           0           0           1           1
          -2           0           0           0           0           1
           1          -2           0           0           0           0
           1           1          -2           0           0           0
           0           1           1          -2           0           0
           0           0           1           1          -2           0
           0           0           0           1           1          -2
           0           0           0           0           1           1
          -2           0           0           0           0           1
           1          -2           0           0           0           0
           0           0           0           0           0           0
           0           0           0           0           0           0
           0           0           0           0           1           1
          -2           0           0           0           0           1
           1          -2           0           0           0           0
           1           1          -2           0           0           0
           0           1           1          -2           0           0
           0           0           1           1          -2           0
           0           0           0           0           0           0
           0           0           0
Number of primitives per shell             I   N=         117
           5           1           1           1           3           1
           1           5           1           1           1           3
           1           1           5           1           1           1
           3           1           1           5           1           1
           1           3           1           1           5           1
           1           1           3           1           1           5
           1           1           1           3           1           1
           5           1           1           1           3           1
           1           5           1           1           1           3
           1           1           3           1           3           1
           3           1           3           1           3           1
           3           1           3           1           3           1
           5           1           1           1           3           1
           1           5           1           1           1           3
           1           1           5           1           1           1
           3           1           1           5           1           1
           1           3           1           1           5           1
           1           1           3           1           1           3
           1           3           1           3           1           3
           1           3           1
Shell to atom map                          I   N=         117
           1           1           1           1           1           1
           1           2           2           2           2           2
           2           2           3           3           3           3
           3           3           3           4           4           4
           4           4           4           4           5           5
           5           5           5           5           5           6
           6           6           6           6           6           6
           7           7           7           7           7           7
           7           8           8           8           8           8
           8           8           9           9          10          10
          11          11          12          12          13          13
          14          14          15          15          16          16
          17          17          17          17          17          17
          17          18          18          18          18          18
          18          18          19          19          19          19
          19          19          19          20          20          20
          20          20          20          20          21          21
          21          21          21          21          21          22
          22          23          23          24          24          25
          25          26          26
Primitive exponents                        R   N=         221
  3.62386130e+03  5.44046210e+02  1.23743380e+02  3.47632090e+01  1.09333330e+01
  3.57447650e+00  5.74832450e-01  1.73036400e-01  9.44328190e+00  2.00179860e+00
  5.46297180e-01  1.52026840e-01  8.00000000e-01  3.62386130e+03  5.44046210e+02
  1.23743380e+02  3.47632090e+01  1.09333330e+01  3.57447650e+00  5.74832450e-01
  1.73036400e-01  9.44328190e+00  2.00179860e+00  5.46297180e-01  1.52026840e-01
  8.00000000e-01  3.62386130e+03  5.44046210e+02  1.23743380e+02  3.47632090e+01
  1.09333330e+01  3.57447650e+00  5.74832450e-01  1.73036400e-01  9.44328190e+00
  2.00179860e+00  5.46297180e-01  1.52026840e-01  8.00000000e-01  3.62386130e+03
  5.44046210e+02  1.23743380e+02  3.47632090e+01  1.09333330e+01  3.57447650e+00
  5.74832450e-01  1.73036400e-01  9.44328190e+00  2.00179860e+00  5.46297180e-01
  1.52026840e-01  8.00000000e-01  3.62386130e+03  5.44046210e+02  1.23743380e+02
  3.47632090e+01  1.09333330e+01  3.57447650e+00  5.74832450e-01  1.73036400e-01
  9.44328190e+00  2.00179860e+00  5.46297180e-01  1.52026840e-01  8.00000000e-01
  3.62386130e+03  5.44046210e+02  1.23743380e+02  3.47632090e+01  1.09333330e+01
  3.57447650e+00  5.74832450e-01  1.73036400e-01  9.44328190e+00  2.00179860e+00
  5.46297180e-01  1.52026840e-01  8.00000000e-01  3.62386130e+03  5.44046210e+02
  1.23743380e+02  3.47632090e+01  1.09333330e+01  3.57447650e+00  5.74832450e-01
  1.73036400e-01  9.44328190e+00  2.00179860e+00  5.46297180e-01  1.52026840e-01
  8.00000000e-01  6.77337470e+03  1.01679700e+03  2.31267380e+02  6.50084540e+01
  2.04998080e+01  6.71606640e+00  1.14715720e+00  3.34232510e-01  1.76942640e+01
  3.85360270e+00  1.04674650e+00  2.75860430e-01  8.00000000e-01  1.87354104e+01
  2.82565040e+00  6.40134700e-01  1.75607460e-01  1.87354104e+01  2.82565040e+00
  6.40134700e-01  1.75607460e-01  1.87354104e+01  2.82565040e+00  6.40134700e-01
  1.75607460e-01  1.87354104e+01  2.82565040e+00  6.40134700e-01  1.75607460e-01
  1.87354104e+01  2.82565040e+00  6.40134700e-01  1.75607460e-01  1.87354104e+01
  2.82565040e+00  6.40134700e-01  1.75607460e-01  1.87354104e+01  2.82565040e+00
  6.40134700e-01  1.75607460e-01  1.87354104e+01  2.82565040e+00  6.40134700e-01
  1.75607460e-01  3.62386130e+03  5.44046210e+02  1.23743380e+02  3.47632090e+01
  1.09333330e+01  3.57447650e+00  5.74832450e-01  1.73036400e-01  9.44328190e+00
  2.00179860e+00  5.46297180e-01  1.52026840e-01  8.00000000e-01  3.62386130e+03
  5.44046210e+02  1.23743380e+02  3.47632090e+01  1.09333330e+01  3.57447650e+00
  5.74832450e-01  1.73036400e-01  9.44328190e+00  2.00179860e+00  5.46297180e-01
  1.52026840e-01  8.00000000e-01  3.62386130e+03  5.44046210e+02  1.23743380e+02
  3.47632090e+01  1.09333330e+01  3.57447650e+00  5.74832450e-01  1.73036400e-01
  9.44328190e+00  2.00179860e+00  5.46297180e-01  1.52026840e-01  8.00000000e-01
  6.77337470e+03  1.01679700e+03  2.31267380e+02  6.50084540e+01  2.04998080e+01
  6.71606640e+00  1.14715720e+00  3.34232510e-01  1.76942640e+01  3.85360270e+00
  1.04674650e+00  2.75860430e-01  8.00000000e-01  6.77337470e+03  1.01679700e+03
  2.31267380e+02  6.50084540e+01  2.04998080e+01  6.71606640e+00  1.14715720e+00
  3.34232510e-01  1.76942640e+01  3.85360270e+00  1.04674650e+00  2.75860430e-01
  8.00000000e-01  1.87354104e+01  2.82565040e+00  6.40134700e-01  1.75607460e-01
  1.87354104e+01  2.82565040e+00  6.40134700e-01  1.75607460e-01  1.87354104e+01
  2.82565040e+00  6.40134700e-01  1.75607460e-01  1.87354104e+01  2.82565040e+00
  6.40134700e-01  1.75607460e-01  1.87354104e+01  2.82565040e+00  6.40134700e-01
  1.75607460e-01
Contraction coefficients                   R   N=         221
  2.26333124e-03  1.73452633e-02  8.60412011e-02  3.02222721e-01  6.89843648e-01
  1.00000000e+00  1.00000000e+00  1.00000000e+00  5.70590790e-02  3.13458733e-01
  7.59988164e-01  1.00000000e+00  1.00000000e+00  2.26333124e-03  1.73452633e-02
  8.60412011e-02  3.02222721e-01  6.89843648e-01  1.00000000e+00  1.00000000e+00
  1.00000000e+00  5.70590790e-02  3.13458733e-01  7.59988164e-01  1.00000000e+00
  1.00000000e+00  2.26333124e-03  1.73452633e-02  8.60412011e-02  3.02222721e-01
  6.89843648e-01  1.00000000e+00  1.00000000e+00  1.00000000e+00  5.70590790e-02
  3.13458733e-01  7.59988164e-01  1.00000000e+00  1.00000000e+00  2.26333124e-03
  1.73452633e-02  8.60412011e-02  3.02222721e-01  6.89843648e-01  1.00000000e+00
  1.00000000e+00  1.00000000e+00  5.70590790e-02  3.13458733e-01  7.59988164e-01
  1.00000000e+00  1.00000000e+00  2.26333124e-03  1.73452633e-02  8.60412011e-02
  3.02222721e-01  6.89843648e-01  1.00000000e+00  1.00000000e+00  1.00000000e+00
  5.70590790e-02  3.13458733e-01  7.59988164e-01  1.00000000e+00  1.00000000e+00
  2.26333124e-03  1.73452633e-02  8.60412011e-02  3.02222721e-01  6.89843648e-01
  1.00000000e+00  1.00000000e+00  1.00000000e+00  5.70590790e-02  3.13458733e-01
  7.59988164e-01  1.00000000e+00  1.00000000e+00  2.26333124e-03  1.73452633e-02
  8.60412011e-02  3.02222721e-01  6.89843648e-01  1.00000000e+00  1.00000000e+00
  1.00000000e+00  5.70590790e-02  3.13458733e-01  7.59988164e-01  1.00000000e+00
  1.00000000e+00  2.18470467e-03  1.67609392e-02  8.35437088e-02  2.97707247e-01
  6.95621078e-01  1.00000000e+00  1.00000000e+00  1.00000000e+00  6.27665555e-02
  3.33746549e-01  7.40926208e-01  1.00000000e+00  1.00000000e+00  3.34854847e-02
  2.34721870e-01  8.13770283e-01  1.00000000e+00  3.34854847e-02  2.34721870e-01
  8.13770283e-01  1.00000000e+00  3.34854847e-02  2.34721870e-01  8.13770283e-01
  1.00000000e+00  3.34854847e-02  2.34721870e-01  8.13770283e-01  1.00000000e+00
  3.34854847e-02  2.34721870e-01  8.13770283e-01  1.00000000e+00  3.34854847e-02
  2.34721870e-01  8.13770283e-01  1.00000000e+00  3.34854847e-02  2.34721870e-01
  8.13770283e-01  1.00000000e+00  3.34854847e-02  2.34721870e-01  8.13770283e-01
  1.00000000e+00  2.26333124e-03  1.73452633e-02  8.60412011e-02  3.02222721e-01
  6.89843648e-01  1.00000000e+00  1.00000000e+00  1.00000000e+00  5.70590790e-02
  3.13458733e-01  7.59988164e-01  1.00000000e+00  1.00000000e+00  2.26333124e-03
  1.73452633e-02  8.60412011e-02  3.02222721e-01  6.89843648e-01  1.00000000e+00
  1.00000000e+00  1.00000000e+00  5.70590790e-02  3.13458733e-01  7.59988164e-01
  1.00000000e+00  1.00000000e+00  2.26333124e-03  1.73452633e-02  8.60412011e-02
  3.02222721e-01  6.89843648e-01  1.00000000e+00  1.00000000e+00  1.00000000e+00
  5.70590790e-02  3.13458733e-01  7.59988164e-01  1.00000000e+00  1.00000000e+00
  2.18470467e-03  1.67609392e-02  8.35437088e-02  2.97707247e-01  6.95621078e-01
  1.00000000e+00  1.00000000e+00  1.00000000e+00  6.27665555e-02  3.33746549e-01
  7.40926208e-01  1.00000000e+00  1.00000000e+00  2.18470467e-03  1.67609392e-02
  8.35437088e-02  2.97707247e-01  6.95621078e-01  1.00000000e+00  1.00000000e+00
  1.00000000e+00  6.27665555e-02  3.33746549e-01  7.40926208e-01  1.00000000e+00
  1.00000000e+00  3.34854847e-02  2.34721870e-01  8.13770283e-01  1.00000000e+00
  3.34854847e-02  2.34721870e-01  8.13770283e-01  1.00000000e+00  3.34854847e-02
  2.34721870e-01  8.13770283e-01  1.00000000e+00  3.34854847e-02  2.34721870e-01
  8.13770283e-01  1.00000000e+00  3.34854847e-02  2.34721870e-01  8.13770283e-01
  1.00000000e+00
Coordinates of each shell                  R   N=         351
  1.69325348e+00 -7.93207628e+00 -1.65904620e+00  1.69325348e+00 -7.93207628e+00
 -1.65904620e+00  1.69325348e+00 -7.93207628e+00 -1.65904620e+00  1.69325348e+00
 -7.93207628e+00 -1.65904620e+00  1.69325348e+00 -7.93207628e+00 -1.65904620e+00
  1.69325348e+00 -7.93207628e+00 -1.65904620e+00  1.69325348e+00 -7.93207628e+00
 -1.65904620e+00  1.83876239e+00 -7.11432757e-01 -1.50975783e+00  1.83876239e+00
 -7.11432757e-01 -1.50975783e+00  1.83876239e+00 -7.11432757e-01 -1.50975783e+00
  1.83876239e+00 -7.11432757e-01 -1.50975783e+00  1.83876239e+00 -7.11432757e-01
 -1.50975783e+00  1.83876239e+00 -7.11432757e-01 -1.50975783e+00  1.83876239e+00
 -7.11432757e-01 -1.50975783e+00  3.91935085e+00 -2.78685474e-01 -3.57714542e-02
  3.91935085e+00 -2.78685474e-01 -3.57714542e-02  3.91935085e+00 -2.78685474e-01
 -3.57714542e-02  3.91935085e+00 -2.78685474e-01 -3.57714542e-02  3.91935085e+00
 -2.78685474e-01 -3.57714542e-02  3.91935085e+00 -2.78685474e-01 -3.57714542e-02
  3.91935085e+00 -2.78685474e-01 -3.57714542e-02  1.11310755e+00 -3.16807672e+00
 -1.98974827e+00  1.11310755e+00 -3.16807672e+00 -1.98974827e+00  1.11310755e+00
 -3.16807672e+00 -1.98974827e+00  1.11310755e+00 -3.16807672e+00 -1.98974827e+00
  1.11310755e+00 -3.16807672e+00 -1.98974827e+00  1.11310755e+00 -3.16807672e+00
 -1.98974827e+00  1.11310755e+00 -3.16807672e+00 -1.98974827e+00  2.49638708e+00
 -5.21276039e+00 -1.04110575e+00  2.49638708e+00 -5.21276039e+00 -1.04110575e+00
  2.49638708e+00 -5.21276039e+00 -1.04110575e+00  2.49638708e+00 -5.21276039e+00
 -1.04110575e+00  2.49638708e+00 -5.21276039e+00 -1.04110575e+00  2.49638708e+00
 -5.21276039e+00 -1.04110575e+00  2.49638708e+00 -5.21276039e+00 -1.04110575e+00
  5.30829955e+00 -2.23266229e+00  9.10981335e-01  5.30829955e+00 -2.23266229e+00
  9.10981335e-01  5.30829955e+00 -2.23266229e+00  9.10981335e-01  5.30829955e+00
 -2.23266229e+00  9.10981335e-01  5.30829955e+00 -2.23266229e+00  9.10981335e-01
  5.30829955e+00 -2.23266229e+00  9.10981335e-01  5.30829955e+00 -2.23266229e+00
  9.10981335e-01  4.60910089e+00 -4.70631379e+00  4.21542268e-01  4.60910089e+00
 -4.70631379e+00  4.21542268e-01  4.60910089e+00 -4.70631379e+00  4.21542268e-01
  4.60910089e+00 -4.70631379e+00  4.21542268e-01  4.60910089e+00 -4.70631379e+00
  4.21542268e-01  4.60910089e+00 -4.70631379e+00  4.21542268e-01  4.60910089e+00
 -4.70631379e+00  4.21542268e-01  4.73949199e+00  2.08347218e+00  4.70675147e-01
  4.73949199e+00  2.08347218e+00  4.70675147e-01  4.73949199e+00  2.08347218e+00
  4.70675147e-01  4.73949199e+00  2.08347218e+00  4.70675147e-01  4.73949199e+00
  2.08347218e+00  4.70675147e-01  4.73949199e+00  2.08347218e+00  4.70675147e-01
  4.73949199e+00  2.08347218e+00  4.70675147e-01  8.22089732e-01  8.55150201e-01
 -2.31856061e+00  8.22089732e-01  8.55150201e-01 -2.31856061e+00 -5.30954174e-01
 -3.53090414e+00 -3.14059148e+00 -5.30954174e-01 -3.53090414e+00 -3.14059148e+00
  6.96747909e+00 -1.86416569e+00  2.03914783e+00  6.96747909e+00 -1.86416569e+00
  2.03914783e+00  6.21158864e+00  2.09858999e+00  1.52892178e+00  6.21158864e+00
  2.09858999e+00  1.52892178e+00  3.16346040e+00 -9.26055375e+00 -1.09779754e+00
  3.16346040e+00 -9.26055375e+00 -1.09779754e+00  1.45703771e+00 -8.04357012e+00
 -3.69995041e+00  1.45703771e+00 -8.04357012e+00 -3.69995041e+00  5.72592903e+00
 -6.24077140e+00  1.15097655e+00  5.72592903e+00 -6.24077140e+00  1.15097655e+00
 -1.05108171e-01 -8.42958259e+00 -7.42874845e-01 -1.05108171e-01 -8.42958259e+00
 -7.42874845e-01 -4.61654206e+00  2.20630438e+00 -1.51044748e-01 -4.61654206e+00
  2.20630438e+00 -1.51044748e-01 -4.61654206e+00  2.20630438e+00 -1.51044748e-01
 -4.61654206e+00  2.20630438e+00 -1.51044748e-01 -4.61654206e+00  2.20630438e+00
 -1.51044748e-01 -4.61654206e+00  2.20630438e+00 -1.51044748e-01 -4.61654206e+00
  2.20630438e+00 -1.51044748e-01 -5.83163596e+00  2.96030510e+00 -2.66060104e+00
 -5.83163596e+00  2.96030510e+00 -2.66060104e+00 -5.83163596e+00  2.96030510e+00
 -2.66060104e+00 -5.83163596e+00  2.96030510e+00 -2.66060104e+00 -5.83163596e+00
  2.96030510e+00 -2.66060104e+00 -5.83163596e+00  2.96030510e+00 -2.66060104e+00
 -5.83163596e+00  2.96030510e+00 -2.66060104e+00 -4.53150438e+00  4.35303326e+00
  1.74057110e+00 -4.53150438e+00  4.35303326e+00  1.74057110e+00 -4.53150438e+00
  4.35303326e+00  1.74057110e+00 -4.53150438e+00  4.35303326e+00  1.74057110e+00
 -4.53150438e+00  4.35303326e+00  1.74057110e+00 -4.53150438e+00  4.35303326e+00
  1.74057110e+00 -4.53150438e+00  4.35303326e+00  1.74057110e+00 -3.83986462e+00
  3.91461680e+00  3.89674861e+00 -3.83986462e+00  3.91461680e+00  3.89674861e+00
 -3.83986462e+00  3.91461680e+00  3.89674861e+00 -3.83986462e+00  3.91461680e+00
  3.89674861e+00 -3.83986462e+00  3.91461680e+00  3.89674861e+00 -3.83986462e+00
  3.91461680e+00  3.89674861e+00 -3.83986462e+00  3.91461680e+00  3.89674861e+00
 -5.19479825e+00  6.48842378e+00  1.11129230e+00 -5.19479825e+00  6.48842378e+00
  1.11129230e+00 -5.19479825e+00  6.48842378e+00  1.11129230e+00 -5.19479825e+00
  6.48842378e+00  1.11129230e+00 -5.19479825e+00  6.48842378e+00  1.11129230e+00
 -5.19479825e+00  6.48842378e+00  1.11129230e+00 -5.19479825e+00  6.48842378e+00
  1.11129230e+00 -5.78061335e+00  7.19089920e-01  6.84214200e-01 -5.78061335e+00
  7.19089920e-01  6.84214200e-01 -2.74949265e+00  1.39561187e+00 -4.17496132e-01
 -2.74949265e+00  1.39561187e+00 -4.17496132e-01 -7.46624905e+00  4.16406065e+00
 -2.29966335e+00 -7.46624905e+00  4.16406065e+00 -2.29966335e+00 -6.48822130e+00
  1.25855004e+00 -3.65754685e+00 -6.48822130e+00  1.25855004e+00 -3.65754685e+00
 -4.48352424e+00  4.00515358e+00 -3.84881548e+00 -4.48352424e+00  4.00515358e+00
 -3.84881548e+00
Total Energy                               R     -6.137609265539913e+02
Alpha Orbital Energies                     R   N=         221
 -1.86567299e+01 -1.85054627e+01 -1.84902780e+01 -9.83852275e+00 -9.78423793e+00
 -9.77913923e+00 -9.77895223e+00 -9.77485218e+00 -9.77266066e+00 -9.76988811e+00
 -9.75964055e+00 -9.73486150e+00 -9.72768020e+00 -8.55374109e-01 -7.55043696e-01
 -6.70853194e-01 -6.51641930e-01 -5.82646698e-01 -5.70383667e-01 -5.37714153e-01
 -5.06195114e-01 -4.52494205e-01 -4.22570831e-01 -4.13147925e-01 -3.85858173e-01
 -3.21313069e-01 -3.06016672e-01 -2.79789205e-01 -2.73405425e-01 -2.68011169e-01
 -2.66976760e-01 -2.53342182e-01 -2.46442135e-01 -2.40353447e-01 -2.07846755e-01
 -2.04654738e-01 -1.92669776e-01 -1.85390726e-01 -1.75515651e-01 -1.73536219e-01
 -1.68771505e-01 -1.57992489e-01 -1.32751065e-01 -1.27223889e-01 -1.16389600e-01
 -7.32314809e-02 -7.65826377e-03 -2.43102976e-03  3.08825473e-02  7.63465337e-02
  1.01254549e-01  1.63780513e-01  1.82166850e-01  2.08242214e-01  2.19083140e-01
  2.21300328e-01  2.27349732e-01  2.46303407e-01  2.52816351e-01  2.68115194e-01
  2.75898981e-01  2.77992058e-01  2.84027188e-01  2.90817467e-01  2.97361398e-01
  3.13752919e-01  3.34287662e-01  3.36705559e-01  3.53607824e-01  3.72644598e-01
  3.94837131e-01  4.08504744e-01  4.17412354e-01  4.45577623e-01  4.84794029e-01
  5.20829145e-01  5.26984837e-01  5.27955632e-01  5.36392350e-01  5.58751697e-01
  5.77730446e-01  5.79896464e-01  5.91277687e-01  5.99017676e-01  6.20206853e-01
  6.23477949e-01  6.41996319e-01  6.44295715e-01  6.56980144e-01  6.61935215e-01
  6.68120676e-01  6.88402337e-01  6.91638781e-01  7.01896183e-01  7.10317669e-01
  7.16605224e-01  7.29930350e-01  7.40464444e-01  7.45760951e-01  7.58866746e-01
  7.73780225e-01  7.88184388e-01  8.13904696e-01  8.27940171e-01  8.77243566e-01
  9.18835244e-01  9.36100158e-01  9.60330073e-01  9.73641644e-01  9.91383764e-01
  9.97660286e-01  1.00834732e+00  1.02192578e+00  1.02895448e+00  1.03219943e+00
  1.03893600e+00  1.05070831e+00  1.05344654e+00  1.06640008e+00  1.07218608e+00
  1.07779864e+00  1.09154379e+00  1.10899256e+00  1.12632697e+00  1.13013233e+00
  1.14817878e+00  1.16011708e+00  1.18327846e+00  1.19746981e+00  1.20044405e+00
  1.26116287e+00  1.27474806e+00  1.28828579e+00  1.29268143e+00  1.29836648e+00
  1.31608908e+00  1.35932461e+00  1.40379228e+00  1.43011454e+00  1.44796091e+00
  1.45374803e+00  1.49036178e+00  1.50359811e+00  1.52206441e+00  1.55472700e+00
  1.57484452e+00  1.57759629e+00  1.61232705e+00  1.64796624e+00  1.77772735e+00
  1.78301872e+00  1.82289629e+00  1.83067242e+00  1.84718154e+00  1.87148379e+00
  1.89706638e+00  1.90467344e+00  1.91167666e+00  1.93927994e+00  1.94959818e+00
  1.95853547e+00  1.99157984e+00  1.99909981e+00  2.03126737e+00  2.03956919e+00
  2.04596729e+00  2.04917678e+00  2.06747372e+00  2.11685816e+00  2.14123357e+00
  2.15147250e+00  2.16323697e+00  2.17469962e+00  2.20300943e+00  2.20627243e+00
  2.21882240e+00  2.22709303e+00  2.25266547e+00  2.27927823e+00  2.29810565e+00
  2.33001654e+00  2.33771761e+00  2.34542440e+00  2.37504790e+00  2.37571335e+00
  2.41286864e+00  2.41669702e+00  2.45690521e+00  2.55206536e+00  2.56084291e+00
  2.57988115e+00  2.59831945e+00  2.62484995e+00  2.66960801e+00  2.68260946e+00
  2.71928820e+00  2.73140870e+00  2.78872995e+00  2.84602247e+00  2.87014887e+00
  2.91233146e+00  2.94646927e+00  2.98171948e+00  2.98253656e+00  3.11513278e+00
  3.16324345e+00  3.31994787e+00  3.46476998e+00  1.29054631e+01  1.33318584e+01
  1.33477022e+01  1.33656716e+01  1.35204425e+01  1.36457106e+01  1.38312854e+01
  1.38613298e+01  1.38684570e+01  1.42333340e+01  2.51935344e+01  2.52013921e+01
  2.53894219e+01
Alpha MO coefficients                      R   N=       48841
 -4.18336481e-06  1.85683022e-05 -1.34656336e-04  1.62612224e-03  7.48856425e-06
  9.42133358e-05  2.89213005e-05  5.68499834e-04  1.30170354e-04  1.69436167e-04
  9.95099575e-07  9.87809433e-06  1.43938415e-05  1.04546823e-05  1.74125944e-05
 -5.05392845e-05  2.20404709e-04 -1.21540451e-03  1.30323275e-02  8.82829274e-05
  6.24567053e-05  8.08498712e-05  3.78480719e-03 -1.09096094e-02  3.01543830e-03
 -3.42322062e-05 -8.70137418e-06 -2.50999299e-04 -1.01317684e-04 -3.46782670e-04
  7.47489564e-05 -4.05231466e-04  1.77976812e-03  3.08251496e-03  3.70520412e-04
  1.08463033e-03  2.33191580e-04  1.07858220e-02  1.98735248e-02  7.06580195e-03
 -3.21356328e-04  4.16256658e-04  2.36945286e-06 -2.02159478e-04  6.92880818e-05
  1.98497042e-06 -9.58296073e-06  2.36886917e-04 -9.35228736e-03 -2.44651485e-04
 -3.11657891e-04 -1.62597046e-04 -1.74605311e-03 -2.05237488e-03 -1.27044145e-03
 -1.46483822e-05  2.83323510e-05 -1.57149529e-05 -1.26209831e-05 -2.12989113e-05
  7.38999004e-07 -2.31795206e-06 -1.31919913e-05  4.64595048e-04 -3.78298607e-05
 -1.35207474e-04 -4.78548833e-05 -4.09744944e-04  2.93563506e-03 -1.03693285e-04
 -2.43901702e-05  6.04010460e-05 -3.77707268e-05  5.85078771e-06 -5.11732914e-05
 -3.74127539e-05  1.63326741e-04 -6.99586636e-04  5.88259777e-03 -1.87803656e-05
 -7.77145130e-05 -1.57491938e-05 -6.47908420e-03 -8.74886305e-03 -4.29846419e-03
  9.39380063e-05  2.15308555e-04  1.09657229e-04  3.73208926e-04  1.58769658e-04
  7.42124211e-07 -3.18313090e-06  1.03512667e-04 -7.63408635e-03  7.48412792e-05
 -3.28344371e-04  4.15599738e-05 -1.45728084e-03 -3.20947632e-03 -1.07860448e-03
 -3.47546867e-05  6.92324639e-05  1.43331612e-05 -8.73130310e-06  2.66380236e-05
  6.35769455e-01  4.22930921e-01  5.41377945e-02 -3.49213949e-02  4.02624921e-04
 -1.61062800e-03  3.52200155e-04  8.82681707e-04  7.51655327e-03  3.06436552e-04
  3.76124575e-04 -2.61495546e-04 -2.85952688e-04  4.66786346e-04 -4.80518788e-04
  3.74798302e-05  4.69704656e-03  1.89156316e-04 -1.42259073e-04  1.11212437e-04
  3.85411580e-03  1.55608022e-03  1.36641370e-04 -1.49621001e-05 -5.05486062e-04
 -1.37031015e-05 -1.08176163e-04  1.83175650e-04  2.18976571e-04 -1.51292546e-05
  7.29192391e-05  2.57158951e-06 -1.14896687e-05  7.91973868e-05 -3.87230249e-04
 -2.29450474e-07  1.73606409e-05 -1.95248855e-05 -2.45597375e-04 -2.49695203e-05
  1.81948809e-04  8.66426882e-06 -1.49200920e-06  3.17204703e-06 -1.07201015e-05
  2.10948773e-05 -5.77108930e-08  4.29231828e-07 -1.41843339e-05  2.08750834e-04
  2.72789792e-05 -1.73377391e-05  1.40551238e-05  1.12358486e-06  7.80130491e-05
  4.55317899e-06 -7.14302103e-06  7.04352401e-06  1.31745025e-06  3.62727840e-06
 -4.30555742e-06  7.81089896e-07 -3.27110930e-06  1.59885654e-05 -4.10048058e-05
  6.81075800e-06 -5.64145342e-06 -1.02638103e-05 -2.81280801e-06  7.50820202e-05
 -9.79165186e-05 -8.12544373e-07 -7.05656877e-06 -1.98514925e-07 -8.68504273e-07
 -4.13436993e-06 -6.54293352e-06  1.65855869e-06 -2.83665300e-05  9.56512342e-05
  3.00174445e-06  5.43160424e-07 -2.39733215e-06 -1.68897805e-05 -3.23461423e-06
 -1.64344080e-05  9.87162172e-07  3.92030602e-07  9.06698466e-07  1.69355826e-06
  1.98555047e-07  4.36453446e-06 -8.20082051e-07  1.76750868e-05 -6.16852778e-05
 -2.22763207e-06  1.28732791e-06 -1.31059150e-06  1.68460902e-06  8.49286769e-06
  1.37296824e-05  1.96384271e-06 -8.82521146e-07 -2.55543413e-06 -8.26502441e-07
 -2.83561176e-06  1.25196727e-05 -1.06943375e-04 -2.32143995e-05  5.74396606e-04
 -1.36321419e-06 -1.04261575e-04 -1.01520447e-05  3.23296882e-05  2.64800823e-05
 -1.06235230e-04  3.29701506e-07 -1.47523081e-06  1.08608078e-05 -1.18337324e-04
 -2.84340589e-06 -3.46317832e-06 -1.21096633e-06 -2.43082699e-05 -3.56166163e-05
 -4.40511064e-05 -8.75778405e-07 -9.08265870e-07 -3.25617989e-06 -1.96449060e-06
 -1.07085637e-06  3.70016361e-06 -1.59312021e-05  9.06062686e-05 -5.79951621e-04
 -9.07422548e-06  1.37366210e-05 -1.45993956e-05 -6.16307253e-05 -2.28690122e-04
  2.03794752e-05  3.35135324e-06 -8.69966707e-06 -6.47782481e-06  8.45617252e-06
 -4.46232098e-06  4.74483879e-07 -2.12043702e-06  1.85832941e-06  1.12866755e-04
  4.57404766e-06  1.20062426e-06 -5.63613147e-06 -2.39389294e-04  1.54777002e-04
 -1.65499927e-04 -7.54711311e-08  5.16270309e-06 -8.30273110e-07 -1.55388686e-06
  5.34092574e-07  5.02754461e-07 -1.95075459e-06 -9.51533267e-06  1.82579474e-04
 -1.62502229e-05  7.89479079e-06  1.10466190e-05  2.22957330e-04 -7.54296758e-05
  6.40184137e-05 -9.70179733e-06  2.14135619e-07 -5.65885583e-06 -3.72672141e-06
 -6.03747099e-06  4.08169357e-07 -1.87690371e-06  2.00408789e-05 -1.74927995e-04
  3.89155050e-06  4.42425338e-06 -2.82293157e-06  2.41789711e-05 -2.86486011e-04