Generated by Psi4
        SP                           UHF                     DEF2-MSVP
Number of atoms                            I               26
Charge                                     I               -1
Multiplicity                               I                1
Number of electrons                        I               98
Number of alpha electrons                  I               49
Number of beta electrons                   I               49
Number of basis functions                  I              221
Number of independent functions            I              221
Atomic numbers                             I   N=          26
           6           6           6           6           6           6
           6           8           1           1           1           1
           1           1           1           1           6           6
           6           8           8           1           1           1
           1           1
Nuclear charges                            R   N=          26
  6.00000000e+00  6.00000000e+00  6.00000000e+00  6.00000000e+00  6.00000000e+00
  6.00000000e+00  6.00000000e+00  8.00000000e+00  1.00000000e+00  1.00000000e+00
  1.00000000e+00  1.00000000e+00  1.00000000e+00  1.00000000e+00  1.00000000e+00
  1.00000000e+00  6.00000000e+00  6.00000000e+00  6.00000000e+00  8.00000000e+00
  8.00000000e+00  1.00000000e+00  1.00000000e+00  1.00000000e+00  1.00000000e+00
  1.00000000e+00
Current cartesian coordinates              R   N=          78
  1.69325348e+00 -7.93207628e+00 -1.65904620e+00  1.83876239e+00 -7.11432757e-01
 -1.50975783e+00  3.91935085e+00 -2.78685474e-01 -3.57714542e-02  1.11310755e+00
 -3.16807672e+00 -1.98974827e+00  2.49638708e+00 -5.21276039e+00 -1.04110575e+00
  5.30829955e+00 -2.23266229e+00  9.10981335e-01  4.60910089e+00 -4.70631379e+00
  4.21542268e-01  4.73949199e+00  2.08347218e+00  4.70675147e-01  8.22089732e-01
  8.55150201e-01 -2.31856061e+00 -5.30954174e-01 -3.53090414e+00 -3.14059148e+00
  6.96747909e+00 -1.86416569e+00  2.03914783e+00  6.21158864e+00  2.09858999e+00
  1.52892178e+00  3.16346040e+00 -9.26055375e+00 -1.09779754e+00  1.45703771e+00
 -8.04357012e+00 -3.69995041e+00  5.72592903e+00 -6.24077140e+00  1.15097655e+00
 -1.05108171e-01 -8.42958259e+00 -7.42874845e-01 -4.61654206e+00  2.20630438e+00
 -1.51044748e-01 -5.83163596e+00  2.96030510e+00 -2.66060104e+00 -4.53150438e+00
  4.35303326e+00  1.74057110e+00 -3.83986462e+00  3.91461680e+00  3.89674861e+00
 -5.19479825e+00  6.48842378e+00  1.11129230e+00 -5.78061335e+00  7.19089920e-01
  6.84214200e-01 -2.74949265e+00  1.39561187e+00 -4.17496132e-01 -7.46624905e+00
  4.16406065e+00 -2.29966335e+00 -6.48822130e+00  1.25855004e+00 -3.65754685e+00
 -4.48352424e+00  4.00515358e+00 -3.84881548e+00
Integer atomic weights                     I   N=          26
          12          12          12          12          12          12
          12          16           1           1           1           1
           1           1           1           1          12          12
          12          16          16           1           1           1
           1           1
Real atomic weights                        R   N=          26
  1.20000000e+01  1.20000000e+01  1.20000000e+01  1.20000000e+01  1.20000000e+01
  1.20000000e+01  1.20000000e+01  1.59949146e+01  1.00782503e+00  1.00782503e+00
  1.00782503e+00  1.00782503e+00  1.00782503e+00  1.00782503e+00  1.00782503e+00
  1.00782503e+00  1.20000000e+01  1.20000000e+01  1.20000000e+01  1.59949146e+01
  1.59949146e+01  1.00782503e+00  1.00782503e+00  1.00782503e+00  1.00782503e+00
  1.00782503e+00
Number of primitive shells                 I              221
Number of contracted shells                I              117
Pure/Cartesian d shells                    I                0
Pure/Cartesian f shells                    I                0
Highest angular momentum                   I                2
Largest degree of contraction              I                5
Shell types                                I   N=         117
           0           0           0           0           1           1
          -2           0           0           0           0           1
           1          -2           0           0           0           0
           1           1          -2           0           0           0
           0           1           1          -2           0           0
           0           0           1           1          -2           0
           0           0           0           1           1          -2
           0           0           0           0           1           1
          -2           0           0           0           0           1
           1          -2           0           0           0           0
           0           0           0           0           0           0
           0           0           0           0           0           0
           0           0           0           0           1           1
          -2           0           0           0           0           1
           1          -2           0           0           0           0
           1           1          -2           0           0           0
           0           1           1          -2           0           0
           0           0           1           1          -2           0
           0           0           0           0           0           0
           0           0           0
Number of primitives per shell             I   N=         117
           5           1           1           1           3           1
           1           5           1           1           1           3
           1           1           5           1           1           1
           3           1           1           5           1           1
           1           3           1           1           5           1
           1           1           3           1           1           5
           1           1           1           3           1           1
           5           1           1           1           3           1
           1           5           1           1           1           3
           1           1           3           1           3           1
           3           1           3           1           3           1
           3           1           3           1           3           1
           5           1           1           1           3           1
           1           5           1           1           1           3
           1           1           5           1           1           1
           3           1           1           5           1           1
           1           3           1           1           5           1
           1           1           3           1           1           3
           1           3           1           3           1           3
           1           3           1
Shell to atom map                          I   N=         117
           1           1           1           1           1           1
           1           2           2           2           2           2
           2           2           3           3           3           3
           3           3           3           4           4           4
           4           4           4           4           5           5
           5           5           5           5           5           6
           6           6           6           6           6           6
           7           7           7           7           7           7
           7           8           8           8           8           8
           8           8           9           9          10          10
          11          11          12          12          13          13
          14          14          15          15          16          16
          17          17          17          17          17          17
          17          18          18          18          18          18
          18          18          19          19          19          19
          19          19          19          20          20          20
          20          20          20          20          21          21
          21          21          21          21          21          22
          22          23          23          24          24          25
          25          26          26
Primitive exponents                        R   N=         221
  3.62386130e+03  5.44046210e+02  1.23743380e+02  3.47632090e+01  1.09333330e+01
  3.57447650e+00  5.74832450e-01  1.73036400e-01  9.44328190e+00  2.00179860e+00
  5.46297180e-01  1.52026840e-01  8.00000000e-01  3.62386130e+03  5.44046210e+02
  1.23743380e+02  3.47632090e+01  1.09333330e+01  3.57447650e+00  5.74832450e-01
  1.73036400e-01  9.44328190e+00  2.00179860e+00  5.46297180e-01  1.52026840e-01
  8.00000000e-01  3.62386130e+03  5.44046210e+02  1.23743380e+02  3.47632090e+01
  1.09333330e+01  3.57447650e+00  5.74832450e-01  1.73036400e-01  9.44328190e+00
  2.00179860e+00  5.46297180e-01  1.52026840e-01  8.00000000e-01  3.62386130e+03
  5.44046210e+02  1.23743380e+02  3.47632090e+01  1.09333330e+01  3.57447650e+00
  5.74832450e-01  1.73036400e-01  9.44328190e+00  2.00179860e+00  5.46297180e-01
  1.52026840e-01  8.00000000e-01  3.62386130e+03  5.44046210e+02  1.23743380e+02
  3.47632090e+01  1.09333330e+01  3.57447650e+00  5.74832450e-01  1.73036400e-01
  9.44328190e+00  2.00179860e+00  5.46297180e-01  1.52026840e-01  8.00000000e-01
  3.62386130e+03  5.44046210e+02  1.23743380e+02  3.47632090e+01  1.09333330e+01
  3.57447650e+00  5.74832450e-01  1.73036400e-01  9.44328190e+00  2.00179860e+00
  5.46297180e-01  1.52026840e-01  8.00000000e-01  3.62386130e+03  5.44046210e+02
  1.23743380e+02  3.47632090e+01  1.09333330e+01  3.57447650e+00  5.74832450e-01
  1.73036400e-01  9.44328190e+00  2.00179860e+00  5.46297180e-01  1.52026840e-01
  8.00000000e-01  6.77337470e+03  1.01679700e+03  2.31267380e+02  6.50084540e+01
  2.04998080e+01  6.71606640e+00  1.14715720e+00  3.34232510e-01  1.76942640e+01
  3.85360270e+00  1.04674650e+00  2.75860430e-01  8.00000000e-01  1.87354104e+01
  2.82565040e+00  6.40134700e-01  1.75607460e-01  1.87354104e+01  2.82565040e+00
  6.40134700e-01  1.75607460e-01  1.87354104e+01  2.82565040e+00  6.40134700e-01
  1.75607460e-01  1.87354104e+01  2.82565040e+00  6.40134700e-01  1.75607460e-01
  1.87354104e+01  2.82565040e+00  6.40134700e-01  1.75607460e-01  1.87354104e+01
  2.82565040e+00  6.40134700e-01  1.75607460e-01  1.87354104e+01  2.82565040e+00
  6.40134700e-01  1.75607460e-01  1.87354104e+01  2.82565040e+00  6.40134700e-01
  1.75607460e-01  3.62386130e+03  5.44046210e+02  1.23743380e+02  3.47632090e+01
  1.09333330e+01  3.57447650e+00  5.74832450e-01  1.73036400e-01  9.44328190e+00
  2.00179860e+00  5.46297180e-01  1.52026840e-01  8.00000000e-01  3.62386130e+03
  5.44046210e+02  1.23743380e+02  3.47632090e+01  1.09333330e+01  3.57447650e+00
  5.74832450e-01  1.73036400e-01  9.44328190e+00  2.00179860e+00  5.46297180e-01
  1.52026840e-01  8.00000000e-01  3.62386130e+03  5.44046210e+02  1.23743380e+02
  3.47632090e+01  1.09333330e+01  3.57447650e+00  5.74832450e-01  1.73036400e-01
  9.44328190e+00  2.00179860e+00  5.46297180e-01  1.52026840e-01  8.00000000e-01
  6.77337470e+03  1.01679700e+03  2.31267380e+02  6.50084540e+01  2.04998080e+01
  6.71606640e+00  1.14715720e+00  3.34232510e-01  1.76942640e+01  3.85360270e+00
  1.04674650e+00  2.75860430e-01  8.00000000e-01  6.77337470e+03  1.01679700e+03
  2.31267380e+02  6.50084540e+01  2.04998080e+01  6.71606640e+00  1.14715720e+00
  3.34232510e-01  1.76942640e+01  3.85360270e+00  1.04674650e+00  2.75860430e-01
  8.00000000e-01  1.87354104e+01  2.82565040e+00  6.40134700e-01  1.75607460e-01
  1.87354104e+01  2.82565040e+00  6.40134700e-01  1.75607460e-01  1.87354104e+01
  2.82565040e+00  6.40134700e-01  1.75607460e-01  1.87354104e+01  2.82565040e+00
  6.40134700e-01  1.75607460e-01  1.87354104e+01  2.82565040e+00  6.40134700e-01
  1.75607460e-01
Contraction coefficients                   R   N=         221
  2.26333124e-03  1.73452633e-02  8.60412011e-02  3.02222721e-01  6.89843648e-01
  1.00000000e+00  1.00000000e+00  1.00000000e+00  5.70590790e-02  3.13458733e-01
  7.59988164e-01  1.00000000e+00  1.00000000e+00  2.26333124e-03  1.73452633e-02
  8.60412011e-02  3.02222721e-01  6.89843648e-01  1.00000000e+00  1.00000000e+00
  1.00000000e+00  5.70590790e-02  3.13458733e-01  7.59988164e-01  1.00000000e+00
  1.00000000e+00  2.26333124e-03  1.73452633e-02  8.60412011e-02  3.02222721e-01
  6.89843648e-01  1.00000000e+00  1.00000000e+00  1.00000000e+00  5.70590790e-02
  3.13458733e-01  7.59988164e-01  1.00000000e+00  1.00000000e+00  2.26333124e-03
  1.73452633e-02  8.60412011e-02  3.02222721e-01  6.89843648e-01  1.00000000e+00
  1.00000000e+00  1.00000000e+00  5.70590790e-02  3.13458733e-01  7.59988164e-01
  1.00000000e+00  1.00000000e+00  2.26333124e-03  1.73452633e-02  8.60412011e-02
  3.02222721e-01  6.89843648e-01  1.00000000e+00  1.00000000e+00  1.00000000e+00
  5.70590790e-02  3.13458733e-01  7.59988164e-01  1.00000000e+00  1.00000000e+00
  2.26333124e-03  1.73452633e-02  8.60412011e-02  3.02222721e-01  6.89843648e-01
  1.00000000e+00  1.00000000e+00  1.00000000e+00  5.70590790e-02  3.13458733e-01
  7.59988164e-01  1.00000000e+00  1.00000000e+00  2.26333124e-03  1.73452633e-02
  8.60412011e-02  3.02222721e-01  6.89843648e-01  1.00000000e+00  1.00000000e+00
  1.00000000e+00  5.70590790e-02  3.13458733e-01  7.59988164e-01  1.00000000e+00
  1.00000000e+00  2.18470467e-03  1.67609392e-02  8.35437088e-02  2.97707247e-01
  6.95621078e-01  1.00000000e+00  1.00000000e+00  1.00000000e+00  6.27665555e-02
  3.33746549e-01  7.40926208e-01  1.00000000e+00  1.00000000e+00  3.34854847e-02
  2.34721870e-01  8.13770283e-01  1.00000000e+00  3.34854847e-02  2.34721870e-01
  8.13770283e-01  1.00000000e+00  3.34854847e-02  2.34721870e-01  8.13770283e-01
  1.00000000e+00  3.34854847e-02  2.34721870e-01  8.13770283e-01  1.00000000e+00
  3.34854847e-02  2.34721870e-01  8.13770283e-01  1.00000000e+00  3.34854847e-02
  2.34721870e-01  8.13770283e-01  1.00000000e+00  3.34854847e-02  2.34721870e-01
  8.13770283e-01  1.00000000e+00  3.34854847e-02  2.34721870e-01  8.13770283e-01
  1.00000000e+00  2.26333124e-03  1.73452633e-02  8.60412011e-02  3.02222721e-01
  6.89843648e-01  1.00000000e+00  1.00000000e+00  1.00000000e+00  5.70590790e-02
  3.13458733e-01  7.59988164e-01  1.00000000e+00  1.00000000e+00  2.26333124e-03
  1.73452633e-02  8.60412011e-02  3.02222721e-01  6.89843648e-01  1.00000000e+00
  1.00000000e+00  1.00000000e+00  5.70590790e-02  3.13458733e-01  7.59988164e-01
  1.00000000e+00  1.00000000e+00  2.26333124e-03  1.73452633e-02  8.60412011e-02
  3.02222721e-01  6.89843648e-01  1.00000000e+00  1.00000000e+00  1.00000000e+00
  5.70590790e-02  3.13458733e-01  7.59988164e-01  1.00000000e+00  1.00000000e+00
  2.18470467e-03  1.67609392e-02  8.35437088e-02  2.97707247e-01  6.95621078e-01
  1.00000000e+00  1.00000000e+00  1.00000000e+00  6.27665555e-02  3.33746549e-01
  7.40926208e-01  1.00000000e+00  1.00000000e+00  2.18470467e-03  1.67609392e-02
  8.35437088e-02  2.97707247e-01  6.95621078e-01  1.00000000e+00  1.00000000e+00
  1.00000000e+00  6.27665555e-02  3.33746549e-01  7.40926208e-01  1.00000000e+00
  1.00000000e+00  3.34854847e-02  2.34721870e-01  8.13770283e-01  1.00000000e+00
  3.34854847e-02  2.34721870e-01  8.13770283e-01  1.00000000e+00  3.34854847e-02
  2.34721870e-01  8.13770283e-01  1.00000000e+00  3.34854847e-02  2.34721870e-01
  8.13770283e-01  1.00000000e+00  3.34854847e-02  2.34721870e-01  8.13770283e-01
  1.00000000e+00
Coordinates of each shell                  R   N=         351
  1.69325348e+00 -7.93207628e+00 -1.65904620e+00  1.69325348e+00 -7.93207628e+00
 -1.65904620e+00  1.69325348e+00 -7.93207628e+00 -1.65904620e+00  1.69325348e+00
 -7.93207628e+00 -1.65904620e+00  1.69325348e+00 -7.93207628e+00 -1.65904620e+00
  1.69325348e+00 -7.93207628e+00 -1.65904620e+00  1.69325348e+00 -7.93207628e+00
 -1.65904620e+00  1.83876239e+00 -7.11432757e-01 -1.50975783e+00  1.83876239e+00
 -7.11432757e-01 -1.50975783e+00  1.83876239e+00 -7.11432757e-01 -1.50975783e+00
  1.83876239e+00 -7.11432757e-01 -1.50975783e+00  1.83876239e+00 -7.11432757e-01
 -1.50975783e+00  1.83876239e+00 -7.11432757e-01 -1.50975783e+00  1.83876239e+00
 -7.11432757e-01 -1.50975783e+00  3.91935085e+00 -2.78685474e-01 -3.57714542e-02
  3.91935085e+00 -2.78685474e-01 -3.57714542e-02  3.91935085e+00 -2.78685474e-01
 -3.57714542e-02  3.91935085e+00 -2.78685474e-01 -3.57714542e-02  3.91935085e+00
 -2.78685474e-01 -3.57714542e-02  3.91935085e+00 -2.78685474e-01 -3.57714542e-02
  3.91935085e+00 -2.78685474e-01 -3.57714542e-02  1.11310755e+00 -3.16807672e+00
 -1.98974827e+00  1.11310755e+00 -3.16807672e+00 -1.98974827e+00  1.11310755e+00
 -3.16807672e+00 -1.98974827e+00  1.11310755e+00 -3.16807672e+00 -1.98974827e+00
  1.11310755e+00 -3.16807672e+00 -1.98974827e+00  1.11310755e+00 -3.16807672e+00
 -1.98974827e+00  1.11310755e+00 -3.16807672e+00 -1.98974827e+00  2.49638708e+00
 -5.21276039e+00 -1.04110575e+00  2.49638708e+00 -5.21276039e+00 -1.04110575e+00
  2.49638708e+00 -5.21276039e+00 -1.04110575e+00  2.49638708e+00 -5.21276039e+00
 -1.04110575e+00  2.49638708e+00 -5.21276039e+00 -1.04110575e+00  2.49638708e+00
 -5.21276039e+00 -1.04110575e+00  2.49638708e+00 -5.21276039e+00 -1.04110575e+00
  5.30829955e+00 -2.23266229e+00  9.10981335e-01  5.30829955e+00 -2.23266229e+00
  9.10981335e-01  5.30829955e+00 -2.23266229e+00  9.10981335e-01  5.30829955e+00
 -2.23266229e+00  9.10981335e-01  5.30829955e+00 -2.23266229e+00  9.10981335e-01
  5.30829955e+00 -2.23266229e+00  9.10981335e-01  5.30829955e+00 -2.23266229e+00
  9.10981335e-01  4.60910089e+00 -4.70631379e+00  4.21542268e-01  4.60910089e+00
 -4.70631379e+00  4.21542268e-01  4.60910089e+00 -4.70631379e+00  4.21542268e-01
  4.60910089e+00 -4.70631379e+00  4.21542268e-01  4.60910089e+00 -4.70631379e+00
  4.21542268e-01  4.60910089e+00 -4.70631379e+00  4.21542268e-01  4.60910089e+00
 -4.70631379e+00  4.21542268e-01  4.73949199e+00  2.08347218e+00  4.70675147e-01
  4.73949199e+00  2.08347218e+00  4.70675147e-01  4.73949199e+00  2.08347218e+00
  4.70675147e-01  4.73949199e+00  2.08347218e+00  4.70675147e-01  4.73949199e+00
  2.08347218e+00  4.70675147e-01  4.73949199e+00  2.08347218e+00  4.70675147e-01
  4.73949199e+00  2.08347218e+00  4.70675147e-01  8.22089732e-01  8.55150201e-01
 -2.31856061e+00  8.22089732e-01  8.55150201e-01 -2.31856061e+00 -5.30954174e-01
 -3.53090414e+00 -3.14059148e+00 -5.30954174e-01 -3.53090414e+00 -3.14059148e+00
  6.96747909e+00 -1.86416569e+00  2.03914783e+00  6.96747909e+00 -1.86416569e+00
  2.03914783e+00  6.21158864e+00  2.09858999e+00  1.52892178e+00  6.21158864e+00
  2.09858999e+00  1.52892178e+00  3.16346040e+00 -9.26055375e+00 -1.09779754e+00
  3.16346040e+00 -9.26055375e+00 -1.09779754e+00  1.45703771e+00 -8.04357012e+00
 -3.69995041e+00  1.45703771e+00 -8.04357012e+00 -3.69995041e+00  5.72592903e+00
 -6.24077140e+00  1.15097655e+00  5.72592903e+00 -6.24077140e+00  1.15097655e+00
 -1.05108171e-01 -8.42958259e+00 -7.42874845e-01 -1.05108171e-01 -8.42958259e+00
 -7.42874845e-01 -4.61654206e+00  2.20630438e+00 -1.51044748e-01 -4.61654206e+00
  2.20630438e+00 -1.51044748e-01 -4.61654206e+00  2.20630438e+00 -1.51044748e-01
 -4.61654206e+00  2.20630438e+00 -1.51044748e-01 -4.61654206e+00  2.20630438e+00
 -1.51044748e-01 -4.61654206e+00  2.20630438e+00 -1.51044748e-01 -4.61654206e+00
  2.20630438e+00 -1.51044748e-01 -5.83163596e+00  2.96030510e+00 -2.66060104e+00
 -5.83163596e+00  2.96030510e+00 -2.66060104e+00 -5.83163596e+00  2.96030510e+00
 -2.66060104e+00 -5.83163596e+00  2.96030510e+00 -2.66060104e+00 -5.83163596e+00
  2.96030510e+00 -2.66060104e+00 -5.83163596e+00  2.96030510e+00 -2.66060104e+00
 -5.83163596e+00  2.96030510e+00 -2.66060104e+00 -4.53150438e+00  4.35303326e+00
  1.74057110e+00 -4.53150438e+00  4.35303326e+00  1.74057110e+00 -4.53150438e+00
  4.35303326e+00  1.74057110e+00 -4.53150438e+00  4.35303326e+00  1.74057110e+00
 -4.53150438e+00  4.35303326e+00  1.74057110e+00 -4.53150438e+00  4.35303326e+00
  1.74057110e+00 -4.53150438e+00  4.35303326e+00  1.74057110e+00 -3.83986462e+00
  3.91461680e+00  3.89674861e+00 -3.83986462e+00  3.91461680e+00  3.89674861e+00
 -3.83986462e+00  3.91461680e+00  3.89674861e+00 -3.83986462e+00  3.91461680e+00
  3.89674861e+00 -3.83986462e+00  3.91461680e+00  3.89674861e+00 -3.83986462e+00
  3.91461680e+00  3.89674861e+00 -3.83986462e+00  3.91461680e+00  3.89674861e+00
 -5.19479825e+00  6.48842378e+00  1.11129230e+00 -5.19479825e+00  6.48842378e+00
  1.11129230e+00 -5.19479825e+00  6.48842378e+00  1.11129230e+00 -5.19479825e+00
  6.48842378e+00  1.11129230e+00 -5.19479825e+00  6.48842378e+00  1.11129230e+00
 -5.19479825e+00  6.48842378e+00  1.11129230e+00 -5.19479825e+00  6.48842378e+00
  1.11129230e+00 -5.78061335e+00  7.19089920e-01  6.84214200e-01 -5.78061335e+00
  7.19089920e-01  6.84214200e-01 -2.74949265e+00  1.39561187e+00 -4.17496132e-01
 -2.74949265e+00  1.39561187e+00 -4.17496132e-01 -7.46624905e+00  4.16406065e+00
 -2.29966335e+00 -7.46624905e+00  4.16406065e+00 -2.29966335e+00 -6.48822130e+00
  1.25855004e+00 -3.65754685e+00 -6.48822130e+00  1.25855004e+00 -3.65754685e+00
 -4.48352424e+00  4.00515358e+00 -3.84881548e+00 -4.48352424e+00  4.00515358e+00
 -3.84881548e+00
Total Energy                               R     -6.126755823911867e+02
Alpha Orbital Energies                     R   N=         221
 -1.86908047e+01 -1.84611365e+01 -1.84509525e+01 -9.85034481e+00 -9.80780270e+00
 -9.80700757e+00 -9.79724214e+00 -9.79614488e+00 -9.79506970e+00 -9.78823957e+00
 -9.72621975e+00 -9.71249753e+00 -9.69352016e+00 -8.81169766e-01 -7.12045430e-01
 -6.89723680e-01 -6.09243999e-01 -6.06329814e-01 -5.87213147e-01 -5.30410876e-01
 -5.11022942e-01 -4.73085004e-01 -4.43335003e-01 -4.05961536e-01 -3.87898009e-01
 -3.42546884e-01 -3.25835579e-01 -2.99520494e-01 -2.92840703e-01 -2.85047549e-01
 -2.66650995e-01 -2.65543322e-01 -2.41583921e-01 -2.32566996e-01 -2.27976712e-01
 -2.15749887e-01 -1.94738392e-01 -1.92193778e-01 -1.76081400e-01 -1.55171976e-01
 -1.46429437e-01 -1.33542513e-01 -1.25021649e-01 -9.62434593e-02 -9.42301080e-02
 -9.08633645e-02  3.48993426e-02  3.64652678e-02  5.93381094e-02  7.05378299e-02
  8.06719508e-02  1.42646959e-01  1.65473626e-01  1.91711072e-01  2.08131434e-01
  2.11595213e-01  2.29279430e-01  2.38530119e-01  2.52155823e-01  2.56172236e-01
  2.62077931e-01  2.71013900e-01  2.87071323e-01  3.02921051e-01  3.11641279e-01
  3.15434937e-01  3.32266971e-01  3.46458157e-01  3.57463950e-01  3.64007848e-01
  3.94023739e-01  3.98083686e-01  4.27534680e-01  4.33624919e-01  5.00137616e-01
  5.04447374e-01  5.14861663e-01  5.17405990e-01  5.42189695e-01  5.57516867e-01
  5.61544879e-01  5.74101006e-01  5.92830526e-01  6.03004765e-01  6.07891169e-01
  6.17694730e-01  6.26442240e-01  6.38645463e-01  6.44968255e-01  6.47033416e-01
  6.71136935e-01  6.79251913e-01  6.90133775e-01  6.94432619e-01  7.11671607e-01
  7.21628035e-01  7.28163839e-01  7.41364571e-01  7.64867133e-01  7.68988112e-01
  7.83681018e-01  7.94156407e-01  8.18565741e-01  8.58457781e-01  8.64875902e-01
  9.13781092e-01  9.42164527e-01  9.49519950e-01  9.56477652e-01  9.70229738e-01
  9.78154944e-01  9.96613405e-01  1.00743707e+00  1.01559399e+00  1.02954097e+00
  1.03880136e+00  1.04384662e+00  1.05839748e+00  1.06478583e+00  1.08820374e+00
  1.09318133e+00  1.10651771e+00  1.11123386e+00  1.12342978e+00  1.12722953e+00
  1.13717603e+00  1.17470246e+00  1.17626887e+00  1.20703615e+00  1.22022671e+00
  1.24125711e+00  1.27463116e+00  1.30087583e+00  1.30980673e+00  1.31981509e+00
  1.32890038e+00  1.35909050e+00  1.38738769e+00  1.41212934e+00  1.42674163e+00
  1.43144126e+00  1.48551345e+00  1.50353305e+00  1.52400280e+00  1.53842253e+00
  1.55949805e+00  1.60576555e+00  1.65230815e+00  1.67579590e+00  1.75818024e+00
  1.76028531e+00  1.80349784e+00  1.82328555e+00  1.86615474e+00  1.87078568e+00
  1.88061405e+00  1.89225060e+00  1.90694331e+00  1.92922205e+00  1.97752769e+00
  1.98974304e+00  2.01257597e+00  2.02421231e+00  2.02611555e+00  2.03971744e+00
  2.04783088e+00  2.07665662e+00  2.07889070e+00  2.09664164e+00  2.14158602e+00
  2.15399251e+00  2.17795337e+00  2.18240171e+00  2.18977228e+00  2.19568157e+00
  2.24464554e+00  2.26040046e+00  2.26611284e+00  2.27335902e+00  2.28560127e+00
  2.31328050e+00  2.32766656e+00  2.35232500e+00  2.35843456e+00  2.39005248e+00
  2.40180266e+00  2.43461554e+00  2.44019617e+00  2.53442537e+00  2.57640903e+00
  2.59570048e+00  2.60766305e+00  2.61038737e+00  2.66042513e+00  2.70019777e+00
  2.70937677e+00  2.71452691e+00  2.76983062e+00  2.84774486e+00  2.88664580e+00
  2.88981693e+00  2.96308146e+00  2.98534778e+00  3.02061953e+00  3.14589553e+00
  3.15217108e+00  3.35855860e+00  3.44601423e+00  1.28866270e+01  1.33141185e+01
  1.33391854e+01  1.33797682e+01  1.34897338e+01  1.36746636e+01  1.38150307e+01
  1.38436608e+01  1.38993175e+01  1.42165688e+01  2.51687847e+01  2.52359496e+01
  2.54311427e+01
Alpha MO coefficients                      R   N=       48841
 -4.17255556e-06  1.85203693e-05 -1.34439649e-04  1.62392058e-03  7.64388887e-06
  9.42312489e-05  2.90428917e-05  5.69789625e-04  1.28426869e-04  1.70134405e-04
  1.01654740e-06  1.00093225e-05  1.45292549e-05  1.06102001e-05  1.76032374e-05
 -5.05616463e-05  2.20419776e-04 -1.21615506e-03  1.30435726e-02  8.87618532e-05
  6.28852378e-05  8.11752624e-05  3.79130564e-03 -1.08747651e-02  3.02035128e-03
 -3.41703568e-05 -8.72760898e-06 -2.50104354e-04 -1.01523527e-04 -3.45510194e-04
  7.47182356e-05 -4.04852622e-04  1.77447353e-03  3.10405031e-03  3.70297149e-04
  1.08464762e-03  2.33297798e-04  1.08168339e-02  1.98019571e-02  7.08585528e-03
 -3.22251387e-04  4.16231121e-04  2.94142520e-06 -2.03519211e-04  7.00905369e-05
  1.98922825e-06 -9.58722383e-06  2.37135814e-04 -9.33788130e-03 -2.44224399e-04
 -3.11666516e-04 -1.62291678e-04 -1.74596145e-03 -2.03912361e-03 -1.27074187e-03
 -1.43934357e-05  2.81312438e-05 -1.57466450e-05 -1.23069614e-05 -2.12886181e-05
  7.70059432e-07 -2.45350380e-06 -1.20845805e-05  4.50627235e-04 -3.80007111e-05
 -1.35167917e-04 -4.79984259e-05 -4.23798543e-04  2.93313090e-03 -1.13306268e-04
 -2.44073083e-05  6.00706010e-05 -3.78994562e-05  5.61345808e-06 -5.13563306e-05
 -3.72348131e-05  1.62496146e-04 -6.93488866e-04  5.81958253e-03 -1.84833956e-05
 -7.83996144e-05 -1.54619097e-05 -6.44301285e-03 -8.76774576e-03 -4.27374023e-03
  9.40078082e-05  2.14358898e-04  1.09764935e-04  3.72722290e-04  1.58907759e-04
  7.51299063e-07 -3.20438969e-06  1.02813487e-04 -7.61222850e-03  7.51858261e-05
 -3.27085000e-04  4.17641856e-05 -1.47595366e-03 -3.20589819e-03 -1.09135049e-03
 -3.48242367e-05  6.94116770e-05  1.43024076e-05 -8.72748154e-06  2.65989127e-05
  6.35786630e-01  4.22928285e-01  5.40966627e-02 -3.48868695e-02  4.49568408e-04
 -1.60789668e-03  3.74733419e-04  8.44747805e-04  7.50793541e-03  2.84928405e-04
  3.77590680e-04 -2.63601113e-04 -2.84938836e-04  4.68205173e-04 -4.78957841e-04
  3.68930379e-05  4.68650468e-03  1.88836278e-04 -1.42411654e-04  1.12840389e-04
  3.83474947e-03  1.55619547e-03  1.55611737e-04 -1.48931173e-05 -5.06382042e-04
 -1.37223038e-05 -1.08058002e-04  1.83219516e-04  2.24452942e-04 -1.51217303e-05
  7.29860467e-05  2.58133133e-06 -1.15229012e-05  7.93264072e-05 -3.87796499e-04
 -2.28510569e-07  1.73011172e-05 -1.94793194e-05 -2.45529777e-04 -2.47483439e-05
  1.81546846e-04  8.61938327e-06 -1.50192216e-06  3.16168434e-06 -1.07061730e-05
  2.10293446e-05 -5.85720411e-08  4.31848059e-07 -1.41974928e-05  2.08473299e-04
  2.72048770e-05 -1.72973642e-05  1.40522032e-05  1.34955848e-06  7.77755332e-05
  4.59972751e-06 -7.11537301e-06  7.05297729e-06  1.30099169e-06  3.61770825e-06
 -4.28361813e-06  7.82047914e-07 -3.27156659e-06  1.59605381e-05 -4.06333021e-05
  6.77682434e-06 -5.65530178e-06 -1.02362759e-05 -2.53410653e-06  7.45834462e-05
 -9.75912573e-05 -7.84163053e-07 -7.03052621e-06 -1.96459360e-07 -8.82831781e-07
 -4.12246157e-06 -4.78838765e-06  2.80310443e-06 -2.80820425e-05  9.50861213e-05
  3.00411374e-06  5.36171011e-07 -2.39569659e-06 -1.68796796e-05 -3.18723747e-06
 -1.62813487e-05  9.68451421e-07  3.93331085e-07  9.03188201e-07  1.68432499e-06
  1.93262898e-07  3.04577072e-06 -1.67839401e-06  1.74627261e-05 -6.12822366e-05
 -2.21558639e-06  1.28974216e-06 -1.31092600e-06  1.64294136e-06  8.43342894e-06
  1.37167789e-05  1.96311853e-06 -8.88400993e-07 -2.54981991e-06 -8.28343810e-07
 -2.82082348e-06  1.25581043e-05 -1.06656123e-04 -2.33800506e-05  5.74425034e-04
 -1.37035221e-06 -1.03924900e-04 -1.01478706e-05  3.22635399e-05  2.63789324e-05
 -1.06028388e-04  3.31894623e-07 -1.48646063e-06  1.09430408e-05 -1.19084241e-04
 -2.86548071e-06 -3.48146866e-06 -1.21322017e-06 -2.44895954e-05 -3.58145439e-05
 -4.43749095e-05 -8.77244963e-07 -9.17909598e-07 -3.28061113e-06 -1.98400527e-06
 -1.08132442e-06  3.71194906e-06 -1.59915348e-05  9.09077524e-05 -5.80792429e-04
 -9.23951599e-06  1.38211598e-05 -1.45626865e-05 -6.06121364e-05 -2.29121333e-04
  2.06100528e-05  3.36673713e-06 -8.67750851e-06 -6.49436643e-06  8.53617436e-06
 -4.45613648e-06  4.79790413e-07 -2.14520512e-06  2.01560880e-06  1.12018980e-04
  4.62010391e-06  1.20195788e-06 -5.67125990e-06 -2.39557398e-04  1.55522436e-04
 -1.65138219e-04 -8.90763693e-08  5.13863646e-06 -8.42202484e-07 -1.55450570e-06
  5.24929287e-07  4.99341903e-07 -1.93647932e-06 -9.72303694e-06  1.84648776e-04
 -1.63473025e-05  7.93878210e-06  1.11371176e-05  2.23868129e-04 -7.58758159e-05
  6.43252944e-05 -9.74938197e-06  2.40860837e-07 -5.68510469e-06 -3.76305057e-06
 -6.12666486e-06  4.10607990e-07 -1.88987747e-06  2.01873212e-05 -1.76023305e-04
  3.92389489e-06  4.45293451e-06 -2.84934162e-06  2.45346426e-05 -2.88301377e-04