Generated by Psi4
        SP                           UHF                     DEF2-MSVP
Number of atoms                            I               26
Charge                                     I               -1
Multiplicity                               I                1
Number of electrons                        I               98
Number of alpha electrons                  I               49
Number of beta electrons                   I               49
Number of basis functions                  I              221
Number of independent functions            I              221
Atomic numbers                             I   N=          26
           6           6           6           6           6           6
           6           8           1           1           1           1
           1           1           1           1           6           6
           6           8           8           1           1           1
           1           1
Nuclear charges                            R   N=          26
  6.00000000e+00  6.00000000e+00  6.00000000e+00  6.00000000e+00  6.00000000e+00
  6.00000000e+00  6.00000000e+00  8.00000000e+00  1.00000000e+00  1.00000000e+00
  1.00000000e+00  1.00000000e+00  1.00000000e+00  1.00000000e+00  1.00000000e+00
  1.00000000e+00  6.00000000e+00  6.00000000e+00  6.00000000e+00  8.00000000e+00
  8.00000000e+00  1.00000000e+00  1.00000000e+00  1.00000000e+00  1.00000000e+00
  1.00000000e+00
Current cartesian coordinates              R   N=          78
  1.69325348e+00 -7.93207628e+00 -1.65904620e+00  1.83876239e+00 -7.11432757e-01
 -1.50975783e+00  3.91935085e+00 -2.78685474e-01 -3.57714542e-02  1.11310755e+00
 -3.16807672e+00 -1.98974827e+00  2.49638708e+00 -5.21276039e+00 -1.04110575e+00
  5.30829955e+00 -2.23266229e+00  9.10981335e-01  4.60910089e+00 -4.70631379e+00
  4.21542268e-01  4.73949199e+00  2.08347218e+00  4.70675147e-01  8.22089732e-01
  8.55150201e-01 -2.31856061e+00 -5.30954174e-01 -3.53090414e+00 -3.14059148e+00
  6.96747909e+00 -1.86416569e+00  2.03914783e+00  6.21158864e+00  2.09858999e+00
  1.52892178e+00  3.16346040e+00 -9.26055375e+00 -1.09779754e+00  1.45703771e+00
 -8.04357012e+00 -3.69995041e+00  5.72592903e+00 -6.24077140e+00  1.15097655e+00
 -1.05108171e-01 -8.42958259e+00 -7.42874845e-01 -4.61654206e+00  2.20630438e+00
 -1.51044748e-01 -5.83163596e+00  2.96030510e+00 -2.66060104e+00 -4.53150438e+00
  4.35303326e+00  1.74057110e+00 -3.83986462e+00  3.91461680e+00  3.89674861e+00
 -5.19479825e+00  6.48842378e+00  1.11129230e+00 -5.78061335e+00  7.19089920e-01
  6.84214200e-01 -2.74949265e+00  1.39561187e+00 -4.17496132e-01 -7.46624905e+00
  4.16406065e+00 -2.29966335e+00 -6.48822130e+00  1.25855004e+00 -3.65754685e+00
 -4.48352424e+00  4.00515358e+00 -3.84881548e+00
Integer atomic weights                     I   N=          26
          12          12          12          12          12          12
          12          16           1           1           1           1
           1           1           1           1          12          12
          12          16          16           1           1           1
           1           1
Real atomic weights                        R   N=          26
  1.20000000e+01  1.20000000e+01  1.20000000e+01  1.20000000e+01  1.20000000e+01
  1.20000000e+01  1.20000000e+01  1.59949146e+01  1.00782503e+00  1.00782503e+00
  1.00782503e+00  1.00782503e+00  1.00782503e+00  1.00782503e+00  1.00782503e+00
  1.00782503e+00  1.20000000e+01  1.20000000e+01  1.20000000e+01  1.59949146e+01
  1.59949146e+01  1.00782503e+00  1.00782503e+00  1.00782503e+00  1.00782503e+00
  1.00782503e+00
Number of primitive shells                 I              221
Number of contracted shells                I              117
Pure/Cartesian d shells                    I                0
Pure/Cartesian f shells                    I                0
Highest angular momentum                   I                2
Largest degree of contraction              I                5
Shell types                                I   N=         117
           0           0           0           0           1           1
          -2           0           0           0           0           1
           1          -2           0           0           0           0
           1           1          -2           0           0           0
           0           1           1          -2           0           0
           0           0           1           1          -2           0
           0           0           0           1           1          -2
           0           0           0           0           1           1
          -2           0           0           0           0           1
           1          -2           0           0           0           0
           0           0           0           0           0           0
           0           0           0           0           0           0
           0           0           0           0           1           1
          -2           0           0           0           0           1
           1          -2           0           0           0           0
           1           1          -2           0           0           0
           0           1           1          -2           0           0
           0           0           1           1          -2           0
           0           0           0           0           0           0
           0           0           0
Number of primitives per shell             I   N=         117
           5           1           1           1           3           1
           1           5           1           1           1           3
           1           1           5           1           1           1
           3           1           1           5           1           1
           1           3           1           1           5           1
           1           1           3           1           1           5
           1           1           1           3           1           1
           5           1           1           1           3           1
           1           5           1           1           1           3
           1           1           3           1           3           1
           3           1           3           1           3           1
           3           1           3           1           3           1
           5           1           1           1           3           1
           1           5           1           1           1           3
           1           1           5           1           1           1
           3           1           1           5           1           1
           1           3           1           1           5           1
           1           1           3           1           1           3
           1           3           1           3           1           3
           1           3           1
Shell to atom map                          I   N=         117
           1           1           1           1           1           1
           1           2           2           2           2           2
           2           2           3           3           3           3
           3           3           3           4           4           4
           4           4           4           4           5           5
           5           5           5           5           5           6
           6           6           6           6           6           6
           7           7           7           7           7           7
           7           8           8           8           8           8
           8           8           9           9          10          10
          11          11          12          12          13          13
          14          14          15          15          16          16
          17          17          17          17          17          17
          17          18          18          18          18          18
          18          18          19          19          19          19
          19          19          19          20          20          20
          20          20          20          20          21          21
          21          21          21          21          21          22
          22          23          23          24          24          25
          25          26          26
Primitive exponents                        R   N=         221
  3.62386130e+03  5.44046210e+02  1.23743380e+02  3.47632090e+01  1.09333330e+01
  3.57447650e+00  5.74832450e-01  1.73036400e-01  9.44328190e+00  2.00179860e+00
  5.46297180e-01  1.52026840e-01  8.00000000e-01  3.62386130e+03  5.44046210e+02
  1.23743380e+02  3.47632090e+01  1.09333330e+01  3.57447650e+00  5.74832450e-01
  1.73036400e-01  9.44328190e+00  2.00179860e+00  5.46297180e-01  1.52026840e-01
  8.00000000e-01  3.62386130e+03  5.44046210e+02  1.23743380e+02  3.47632090e+01
  1.09333330e+01  3.57447650e+00  5.74832450e-01  1.73036400e-01  9.44328190e+00
  2.00179860e+00  5.46297180e-01  1.52026840e-01  8.00000000e-01  3.62386130e+03
  5.44046210e+02  1.23743380e+02  3.47632090e+01  1.09333330e+01  3.57447650e+00
  5.74832450e-01  1.73036400e-01  9.44328190e+00  2.00179860e+00  5.46297180e-01
  1.52026840e-01  8.00000000e-01  3.62386130e+03  5.44046210e+02  1.23743380e+02
  3.47632090e+01  1.09333330e+01  3.57447650e+00  5.74832450e-01  1.73036400e-01
  9.44328190e+00  2.00179860e+00  5.46297180e-01  1.52026840e-01  8.00000000e-01
  3.62386130e+03  5.44046210e+02  1.23743380e+02  3.47632090e+01  1.09333330e+01
  3.57447650e+00  5.74832450e-01  1.73036400e-01  9.44328190e+00  2.00179860e+00
  5.46297180e-01  1.52026840e-01  8.00000000e-01  3.62386130e+03  5.44046210e+02
  1.23743380e+02  3.47632090e+01  1.09333330e+01  3.57447650e+00  5.74832450e-01
  1.73036400e-01  9.44328190e+00  2.00179860e+00  5.46297180e-01  1.52026840e-01
  8.00000000e-01  6.77337470e+03  1.01679700e+03  2.31267380e+02  6.50084540e+01
  2.04998080e+01  6.71606640e+00  1.14715720e+00  3.34232510e-01  1.76942640e+01
  3.85360270e+00  1.04674650e+00  2.75860430e-01  8.00000000e-01  1.87354104e+01
  2.82565040e+00  6.40134700e-01  1.75607460e-01  1.87354104e+01  2.82565040e+00
  6.40134700e-01  1.75607460e-01  1.87354104e+01  2.82565040e+00  6.40134700e-01
  1.75607460e-01  1.87354104e+01  2.82565040e+00  6.40134700e-01  1.75607460e-01
  1.87354104e+01  2.82565040e+00  6.40134700e-01  1.75607460e-01  1.87354104e+01
  2.82565040e+00  6.40134700e-01  1.75607460e-01  1.87354104e+01  2.82565040e+00
  6.40134700e-01  1.75607460e-01  1.87354104e+01  2.82565040e+00  6.40134700e-01
  1.75607460e-01  3.62386130e+03  5.44046210e+02  1.23743380e+02  3.47632090e+01
  1.09333330e+01  3.57447650e+00  5.74832450e-01  1.73036400e-01  9.44328190e+00
  2.00179860e+00  5.46297180e-01  1.52026840e-01  8.00000000e-01  3.62386130e+03
  5.44046210e+02  1.23743380e+02  3.47632090e+01  1.09333330e+01  3.57447650e+00
  5.74832450e-01  1.73036400e-01  9.44328190e+00  2.00179860e+00  5.46297180e-01
  1.52026840e-01  8.00000000e-01  3.62386130e+03  5.44046210e+02  1.23743380e+02
  3.47632090e+01  1.09333330e+01  3.57447650e+00  5.74832450e-01  1.73036400e-01
  9.44328190e+00  2.00179860e+00  5.46297180e-01  1.52026840e-01  8.00000000e-01
  6.77337470e+03  1.01679700e+03  2.31267380e+02  6.50084540e+01  2.04998080e+01
  6.71606640e+00  1.14715720e+00  3.34232510e-01  1.76942640e+01  3.85360270e+00
  1.04674650e+00  2.75860430e-01  8.00000000e-01  6.77337470e+03  1.01679700e+03
  2.31267380e+02  6.50084540e+01  2.04998080e+01  6.71606640e+00  1.14715720e+00
  3.34232510e-01  1.76942640e+01  3.85360270e+00  1.04674650e+00  2.75860430e-01
  8.00000000e-01  1.87354104e+01  2.82565040e+00  6.40134700e-01  1.75607460e-01
  1.87354104e+01  2.82565040e+00  6.40134700e-01  1.75607460e-01  1.87354104e+01
  2.82565040e+00  6.40134700e-01  1.75607460e-01  1.87354104e+01  2.82565040e+00
  6.40134700e-01  1.75607460e-01  1.87354104e+01  2.82565040e+00  6.40134700e-01
  1.75607460e-01
Contraction coefficients                   R   N=         221
  2.26333124e-03  1.73452633e-02  8.60412011e-02  3.02222721e-01  6.89843648e-01
  1.00000000e+00  1.00000000e+00  1.00000000e+00  5.70590790e-02  3.13458733e-01
  7.59988164e-01  1.00000000e+00  1.00000000e+00  2.26333124e-03  1.73452633e-02
  8.60412011e-02  3.02222721e-01  6.89843648e-01  1.00000000e+00  1.00000000e+00
  1.00000000e+00  5.70590790e-02  3.13458733e-01  7.59988164e-01  1.00000000e+00
  1.00000000e+00  2.26333124e-03  1.73452633e-02  8.60412011e-02  3.02222721e-01
  6.89843648e-01  1.00000000e+00  1.00000000e+00  1.00000000e+00  5.70590790e-02
  3.13458733e-01  7.59988164e-01  1.00000000e+00  1.00000000e+00  2.26333124e-03
  1.73452633e-02  8.60412011e-02  3.02222721e-01  6.89843648e-01  1.00000000e+00
  1.00000000e+00  1.00000000e+00  5.70590790e-02  3.13458733e-01  7.59988164e-01
  1.00000000e+00  1.00000000e+00  2.26333124e-03  1.73452633e-02  8.60412011e-02
  3.02222721e-01  6.89843648e-01  1.00000000e+00  1.00000000e+00  1.00000000e+00
  5.70590790e-02  3.13458733e-01  7.59988164e-01  1.00000000e+00  1.00000000e+00
  2.26333124e-03  1.73452633e-02  8.60412011e-02  3.02222721e-01  6.89843648e-01
  1.00000000e+00  1.00000000e+00  1.00000000e+00  5.70590790e-02  3.13458733e-01
  7.59988164e-01  1.00000000e+00  1.00000000e+00  2.26333124e-03  1.73452633e-02
  8.60412011e-02  3.02222721e-01  6.89843648e-01  1.00000000e+00  1.00000000e+00
  1.00000000e+00  5.70590790e-02  3.13458733e-01  7.59988164e-01  1.00000000e+00
  1.00000000e+00  2.18470467e-03  1.67609392e-02  8.35437088e-02  2.97707247e-01
  6.95621078e-01  1.00000000e+00  1.00000000e+00  1.00000000e+00  6.27665555e-02
  3.33746549e-01  7.40926208e-01  1.00000000e+00  1.00000000e+00  3.34854847e-02
  2.34721870e-01  8.13770283e-01  1.00000000e+00  3.34854847e-02  2.34721870e-01
  8.13770283e-01  1.00000000e+00  3.34854847e-02  2.34721870e-01  8.13770283e-01
  1.00000000e+00  3.34854847e-02  2.34721870e-01  8.13770283e-01  1.00000000e+00
  3.34854847e-02  2.34721870e-01  8.13770283e-01  1.00000000e+00  3.34854847e-02
  2.34721870e-01  8.13770283e-01  1.00000000e+00  3.34854847e-02  2.34721870e-01
  8.13770283e-01  1.00000000e+00  3.34854847e-02  2.34721870e-01  8.13770283e-01
  1.00000000e+00  2.26333124e-03  1.73452633e-02  8.60412011e-02  3.02222721e-01
  6.89843648e-01  1.00000000e+00  1.00000000e+00  1.00000000e+00  5.70590790e-02
  3.13458733e-01  7.59988164e-01  1.00000000e+00  1.00000000e+00  2.26333124e-03
  1.73452633e-02  8.60412011e-02  3.02222721e-01  6.89843648e-01  1.00000000e+00
  1.00000000e+00  1.00000000e+00  5.70590790e-02  3.13458733e-01  7.59988164e-01
  1.00000000e+00  1.00000000e+00  2.26333124e-03  1.73452633e-02  8.60412011e-02
  3.02222721e-01  6.89843648e-01  1.00000000e+00  1.00000000e+00  1.00000000e+00
  5.70590790e-02  3.13458733e-01  7.59988164e-01  1.00000000e+00  1.00000000e+00
  2.18470467e-03  1.67609392e-02  8.35437088e-02  2.97707247e-01  6.95621078e-01
  1.00000000e+00  1.00000000e+00  1.00000000e+00  6.27665555e-02  3.33746549e-01
  7.40926208e-01  1.00000000e+00  1.00000000e+00  2.18470467e-03  1.67609392e-02
  8.35437088e-02  2.97707247e-01  6.95621078e-01  1.00000000e+00  1.00000000e+00
  1.00000000e+00  6.27665555e-02  3.33746549e-01  7.40926208e-01  1.00000000e+00
  1.00000000e+00  3.34854847e-02  2.34721870e-01  8.13770283e-01  1.00000000e+00
  3.34854847e-02  2.34721870e-01  8.13770283e-01  1.00000000e+00  3.34854847e-02
  2.34721870e-01  8.13770283e-01  1.00000000e+00  3.34854847e-02  2.34721870e-01
  8.13770283e-01  1.00000000e+00  3.34854847e-02  2.34721870e-01  8.13770283e-01
  1.00000000e+00
Coordinates of each shell                  R   N=         351
  1.69325348e+00 -7.93207628e+00 -1.65904620e+00  1.69325348e+00 -7.93207628e+00
 -1.65904620e+00  1.69325348e+00 -7.93207628e+00 -1.65904620e+00  1.69325348e+00
 -7.93207628e+00 -1.65904620e+00  1.69325348e+00 -7.93207628e+00 -1.65904620e+00
  1.69325348e+00 -7.93207628e+00 -1.65904620e+00  1.69325348e+00 -7.93207628e+00
 -1.65904620e+00  1.83876239e+00 -7.11432757e-01 -1.50975783e+00  1.83876239e+00
 -7.11432757e-01 -1.50975783e+00  1.83876239e+00 -7.11432757e-01 -1.50975783e+00
  1.83876239e+00 -7.11432757e-01 -1.50975783e+00  1.83876239e+00 -7.11432757e-01
 -1.50975783e+00  1.83876239e+00 -7.11432757e-01 -1.50975783e+00  1.83876239e+00
 -7.11432757e-01 -1.50975783e+00  3.91935085e+00 -2.78685474e-01 -3.57714542e-02
  3.91935085e+00 -2.78685474e-01 -3.57714542e-02  3.91935085e+00 -2.78685474e-01
 -3.57714542e-02  3.91935085e+00 -2.78685474e-01 -3.57714542e-02  3.91935085e+00
 -2.78685474e-01 -3.57714542e-02  3.91935085e+00 -2.78685474e-01 -3.57714542e-02
  3.91935085e+00 -2.78685474e-01 -3.57714542e-02  1.11310755e+00 -3.16807672e+00
 -1.98974827e+00  1.11310755e+00 -3.16807672e+00 -1.98974827e+00  1.11310755e+00
 -3.16807672e+00 -1.98974827e+00  1.11310755e+00 -3.16807672e+00 -1.98974827e+00
  1.11310755e+00 -3.16807672e+00 -1.98974827e+00  1.11310755e+00 -3.16807672e+00
 -1.98974827e+00  1.11310755e+00 -3.16807672e+00 -1.98974827e+00  2.49638708e+00
 -5.21276039e+00 -1.04110575e+00  2.49638708e+00 -5.21276039e+00 -1.04110575e+00
  2.49638708e+00 -5.21276039e+00 -1.04110575e+00  2.49638708e+00 -5.21276039e+00
 -1.04110575e+00  2.49638708e+00 -5.21276039e+00 -1.04110575e+00  2.49638708e+00
 -5.21276039e+00 -1.04110575e+00  2.49638708e+00 -5.21276039e+00 -1.04110575e+00
  5.30829955e+00 -2.23266229e+00  9.10981335e-01  5.30829955e+00 -2.23266229e+00
  9.10981335e-01  5.30829955e+00 -2.23266229e+00  9.10981335e-01  5.30829955e+00
 -2.23266229e+00  9.10981335e-01  5.30829955e+00 -2.23266229e+00  9.10981335e-01
  5.30829955e+00 -2.23266229e+00  9.10981335e-01  5.30829955e+00 -2.23266229e+00
  9.10981335e-01  4.60910089e+00 -4.70631379e+00  4.21542268e-01  4.60910089e+00
 -4.70631379e+00  4.21542268e-01  4.60910089e+00 -4.70631379e+00  4.21542268e-01
  4.60910089e+00 -4.70631379e+00  4.21542268e-01  4.60910089e+00 -4.70631379e+00
  4.21542268e-01  4.60910089e+00 -4.70631379e+00  4.21542268e-01  4.60910089e+00
 -4.70631379e+00  4.21542268e-01  4.73949199e+00  2.08347218e+00  4.70675147e-01
  4.73949199e+00  2.08347218e+00  4.70675147e-01  4.73949199e+00  2.08347218e+00
  4.70675147e-01  4.73949199e+00  2.08347218e+00  4.70675147e-01  4.73949199e+00
  2.08347218e+00  4.70675147e-01  4.73949199e+00  2.08347218e+00  4.70675147e-01
  4.73949199e+00  2.08347218e+00  4.70675147e-01  8.22089732e-01  8.55150201e-01
 -2.31856061e+00  8.22089732e-01  8.55150201e-01 -2.31856061e+00 -5.30954174e-01
 -3.53090414e+00 -3.14059148e+00 -5.30954174e-01 -3.53090414e+00 -3.14059148e+00
  6.96747909e+00 -1.86416569e+00  2.03914783e+00  6.96747909e+00 -1.86416569e+00
  2.03914783e+00  6.21158864e+00  2.09858999e+00  1.52892178e+00  6.21158864e+00
  2.09858999e+00  1.52892178e+00  3.16346040e+00 -9.26055375e+00 -1.09779754e+00
  3.16346040e+00 -9.26055375e+00 -1.09779754e+00  1.45703771e+00 -8.04357012e+00
 -3.69995041e+00  1.45703771e+00 -8.04357012e+00 -3.69995041e+00  5.72592903e+00
 -6.24077140e+00  1.15097655e+00  5.72592903e+00 -6.24077140e+00  1.15097655e+00
 -1.05108171e-01 -8.42958259e+00 -7.42874845e-01 -1.05108171e-01 -8.42958259e+00
 -7.42874845e-01 -4.61654206e+00  2.20630438e+00 -1.51044748e-01 -4.61654206e+00
  2.20630438e+00 -1.51044748e-01 -4.61654206e+00  2.20630438e+00 -1.51044748e-01
 -4.61654206e+00  2.20630438e+00 -1.51044748e-01 -4.61654206e+00  2.20630438e+00
 -1.51044748e-01 -4.61654206e+00  2.20630438e+00 -1.51044748e-01 -4.61654206e+00
  2.20630438e+00 -1.51044748e-01 -5.83163596e+00  2.96030510e+00 -2.66060104e+00
 -5.83163596e+00  2.96030510e+00 -2.66060104e+00 -5.83163596e+00  2.96030510e+00
 -2.66060104e+00 -5.83163596e+00  2.96030510e+00 -2.66060104e+00 -5.83163596e+00
  2.96030510e+00 -2.66060104e+00 -5.83163596e+00  2.96030510e+00 -2.66060104e+00
 -5.83163596e+00  2.96030510e+00 -2.66060104e+00 -4.53150438e+00  4.35303326e+00
  1.74057110e+00 -4.53150438e+00  4.35303326e+00  1.74057110e+00 -4.53150438e+00
  4.35303326e+00  1.74057110e+00 -4.53150438e+00  4.35303326e+00  1.74057110e+00
 -4.53150438e+00  4.35303326e+00  1.74057110e+00 -4.53150438e+00  4.35303326e+00
  1.74057110e+00 -4.53150438e+00  4.35303326e+00  1.74057110e+00 -3.83986462e+00
  3.91461680e+00  3.89674861e+00 -3.83986462e+00  3.91461680e+00  3.89674861e+00
 -3.83986462e+00  3.91461680e+00  3.89674861e+00 -3.83986462e+00  3.91461680e+00
  3.89674861e+00 -3.83986462e+00  3.91461680e+00  3.89674861e+00 -3.83986462e+00
  3.91461680e+00  3.89674861e+00 -3.83986462e+00  3.91461680e+00  3.89674861e+00
 -5.19479825e+00  6.48842378e+00  1.11129230e+00 -5.19479825e+00  6.48842378e+00
  1.11129230e+00 -5.19479825e+00  6.48842378e+00  1.11129230e+00 -5.19479825e+00
  6.48842378e+00  1.11129230e+00 -5.19479825e+00  6.48842378e+00  1.11129230e+00
 -5.19479825e+00  6.48842378e+00  1.11129230e+00 -5.19479825e+00  6.48842378e+00
  1.11129230e+00 -5.78061335e+00  7.19089920e-01  6.84214200e-01 -5.78061335e+00
  7.19089920e-01  6.84214200e-01 -2.74949265e+00  1.39561187e+00 -4.17496132e-01
 -2.74949265e+00  1.39561187e+00 -4.17496132e-01 -7.46624905e+00  4.16406065e+00
 -2.29966335e+00 -7.46624905e+00  4.16406065e+00 -2.29966335e+00 -6.48822130e+00
  1.25855004e+00 -3.65754685e+00 -6.48822130e+00  1.25855004e+00 -3.65754685e+00
 -4.48352424e+00  4.00515358e+00 -3.84881548e+00 -4.48352424e+00  4.00515358e+00
 -3.84881548e+00
Total Energy                               R     -6.126714724630519e+02
Alpha Orbital Energies                     R   N=         221
 -1.86903997e+01 -1.84618983e+01 -1.84511502e+01 -9.84947637e+00 -9.80776742e+00
 -9.80669416e+00 -9.79667655e+00 -9.79630941e+00 -9.79401648e+00 -9.78900284e+00
 -9.72612391e+00 -9.71247376e+00 -9.69342542e+00 -8.80752435e-01 -7.12323051e-01
 -6.89486862e-01 -6.09555708e-01 -6.06094512e-01 -5.86990443e-01 -5.30144268e-01
 -5.11105130e-01 -4.72806065e-01 -4.43150889e-01 -4.05632118e-01 -3.87984121e-01
 -3.42326314e-01 -3.25614666e-01 -2.99348903e-01 -2.92641821e-01 -2.84902237e-01
 -2.66298762e-01 -2.65315360e-01 -2.41696902e-01 -2.32422728e-01 -2.28014795e-01
 -2.15536814e-01 -1.94479022e-01 -1.91958441e-01 -1.76236032e-01 -1.55332827e-01
 -1.46549567e-01 -1.33397899e-01 -1.25230348e-01 -9.61941698e-02 -9.43199235e-02
 -9.10586526e-02  3.45498614e-02  3.61372536e-02  5.95679290e-02  7.01805848e-02
  8.08898243e-02  1.42913298e-01  1.65641082e-01  1.91860513e-01  2.08354298e-01
  2.11665532e-01  2.29489830e-01  2.38647548e-01  2.52010519e-01  2.56317359e-01
  2.62148920e-01  2.71157931e-01  2.86999673e-01  3.02810931e-01  3.11705795e-01
  3.15417517e-01  3.32300955e-01  3.46559613e-01  3.57399397e-01  3.64149207e-01
  3.94075340e-01  3.98221762e-01  4.27726991e-01  4.33551213e-01  5.00335808e-01
  5.04594819e-01  5.14922376e-01  5.17410737e-01  5.42492379e-01  5.57408032e-01
  5.61637526e-01  5.74370610e-01  5.92926225e-01  6.03197297e-01  6.07985670e-01
  6.17738487e-01  6.26627467e-01  6.38826036e-01  6.45120387e-01  6.47209621e-01
  6.71270071e-01  6.79326042e-01  6.90223464e-01  6.94632564e-01  7.11722676e-01
  7.21810619e-01  7.28144182e-01  7.41297864e-01  7.65017084e-01  7.68936669e-01
  7.83719883e-01  7.93970581e-01  8.18516691e-01  8.58570652e-01  8.64770902e-01
  9.13939315e-01  9.42408943e-01  9.49509230e-01  9.56716216e-01  9.70395885e-01
  9.78285652e-01  9.96714010e-01  1.00762229e+00  1.01575385e+00  1.02977427e+00
  1.03893579e+00  1.04377334e+00  1.05843784e+00  1.06484527e+00  1.08809057e+00
  1.09308700e+00  1.10658505e+00  1.11128794e+00  1.12336575e+00  1.12733891e+00
  1.13702268e+00  1.17480148e+00  1.17632526e+00  1.20683084e+00  1.22010817e+00
  1.24148360e+00  1.27489498e+00  1.30096306e+00  1.30958905e+00  1.31965842e+00
  1.32859888e+00  1.35913521e+00  1.38760851e+00  1.41237141e+00  1.42695131e+00
  1.43164482e+00  1.48574427e+00  1.50375793e+00  1.52388924e+00  1.53861249e+00
  1.55970235e+00  1.60559565e+00  1.65209832e+00  1.67570150e+00  1.75849643e+00
  1.76057868e+00  1.80374734e+00  1.82349430e+00  1.86596705e+00  1.87097547e+00
  1.88079618e+00  1.89253432e+00  1.90674854e+00  1.92951323e+00  1.97727294e+00
  1.98955549e+00  2.01282280e+00  2.02424399e+00  2.02611461e+00  2.03938806e+00
  2.04807972e+00  2.07652423e+00  2.07873101e+00  2.09681949e+00  2.14182797e+00
  2.15421001e+00  2.17771707e+00  2.18269172e+00  2.18950367e+00  2.19596745e+00
  2.24437887e+00  2.26048309e+00  2.26591965e+00  2.27354617e+00  2.28547241e+00
  2.31347985e+00  2.32788217e+00  2.35254048e+00  2.35831578e+00  2.39029001e+00
  2.40169214e+00  2.43491943e+00  2.44012614e+00  2.53481599e+00  2.57670805e+00
  2.59561336e+00  2.60780941e+00  2.61032794e+00  2.66067379e+00  2.70045109e+00
  2.70918716e+00  2.71471961e+00  2.77005990e+00  2.84798412e+00  2.88643681e+00
  2.89002885e+00  2.96340446e+00  2.98508584e+00  3.02034787e+00  3.14620001e+00
  3.15200041e+00  3.35834102e+00  3.44626730e+00  1.28868736e+01  1.33143549e+01
  1.33394396e+01  1.33797891e+01  1.34900244e+01  1.36747002e+01  1.38154676e+01
  1.38437400e+01  1.38993654e+01  1.42168761e+01  2.51691798e+01  2.52354618e+01
  2.54307141e+01
Alpha MO coefficients                      R   N=       48841
 -4.17241451e-06  1.85197801e-05 -1.34436630e-04  1.62394492e-03  7.64356217e-06
  9.42333616e-05  2.90431932e-05  5.69789309e-04  1.28427303e-04  1.70129496e-04
  1.01699646e-06  1.00080277e-05  1.45285669e-05  1.06097270e-05  1.76022611e-05
 -5.05602895e-05  2.20416245e-04 -1.21613711e-03  1.30435467e-02  8.87652275e-05
  6.28946130e-05  8.11773647e-05  3.79124422e-03 -1.08750600e-02  3.02031369e-03
 -3.41685951e-05 -8.73228755e-06 -2.50100025e-04 -1.01522528e-04 -3.45504379e-04
  7.47239943e-05 -4.04874249e-04  1.77448879e-03  3.10395106e-03  3.70313518e-04
  1.08468876e-03  2.33308030e-04  1.08166726e-02  1.98023813e-02  7.08573965e-03
 -3.22290498e-04  4.16236883e-04  2.98191024e-06 -2.03580592e-04  7.01544226e-05
  1.98961516e-06 -9.58918484e-06  2.37147653e-04 -9.33808915e-03 -2.44225497e-04
 -3.11665244e-04 -1.62292511e-04 -1.74599322e-03 -2.03923784e-03 -1.27076393e-03
 -1.43924541e-05  2.81320327e-05 -1.57453122e-05 -1.23044804e-05 -2.12868700e-05
  7.70267636e-07 -2.45438738e-06 -1.20847088e-05  4.50699455e-04 -3.79986999e-05
 -1.35168781e-04 -4.79972638e-05 -4.23739691e-04  2.93318953e-03 -1.13262660e-04
 -2.44074659e-05  6.00737017e-05 -3.78995834e-05  5.61535754e-06 -5.13563634e-05
 -3.72349333e-05  1.62495464e-04 -6.93506770e-04  5.82006450e-03 -1.84888844e-05
 -7.83719759e-05 -1.54660706e-05 -6.44325406e-03 -8.76784515e-03 -4.27390125e-03
  9.40040155e-05  2.14353657e-04  1.09761783e-04  3.72711341e-04  1.58902482e-04
  7.51833757e-07 -3.20644913e-06  1.02839163e-04 -7.61254890e-03  7.51844151e-05
 -3.27098323e-04  4.17632806e-05 -1.47590162e-03 -3.20603194e-03 -1.09131781e-03
 -3.48218284e-05  6.94091753e-05  1.42997944e-05 -8.72510684e-06  2.65953299e-05
  6.35786604e-01  4.22928255e-01  5.40968345e-02 -3.48871146e-02  4.49528013e-04
 -1.60723686e-03  3.74697256e-04  8.44843118e-04  7.50771228e-03  2.84993319e-04
  3.77600501e-04 -2.63577966e-04 -2.84961791e-04  4.68234858e-04 -4.78994541e-04
  3.69056741e-05  4.68659255e-03  1.88841217e-04 -1.42427289e-04  1.12846570e-04
  3.83486645e-03  1.55615682e-03  1.55646500e-04 -1.48914976e-05 -5.06391406e-04
 -1.37214221e-05 -1.08062653e-04  1.83225127e-04  2.24417098e-04 -1.51210835e-05
  7.29865149e-05  2.58128880e-06 -1.15227657e-05  7.93258583e-05 -3.87793380e-04
 -2.28518526e-07  1.73010020e-05 -1.94799910e-05 -2.45529909e-04 -2.47465027e-05
  1.81553352e-04  8.61955223e-06 -1.50202245e-06  3.16209860e-06 -1.07064530e-05
  2.10296478e-05 -5.85833576e-08  4.31903944e-07 -1.41980477e-05  2.08478480e-04
  2.72056159e-05 -1.72977603e-05  1.40522279e-05  1.34783443e-06  7.77764268e-05
  4.60059971e-06 -7.11557541e-06  7.05302306e-06  1.30099892e-06  3.61767892e-06
 -4.28393917e-06  7.82054844e-07 -3.27162633e-06  1.59613401e-05 -4.06401764e-05
  6.77677592e-06 -5.65516879e-06 -1.02362479e-05 -2.53455442e-06  7.45880972e-05
 -9.75918869e-05 -7.84364563e-07 -7.03068169e-06 -1.96547679e-07 -8.82627058e-07
 -4.12240663e-06 -4.79834458e-06  2.79654079e-06 -2.80834600e-05  9.50891824e-05
  3.00416603e-06  5.36199978e-07 -2.39575240e-06 -1.68801517e-05 -3.18756739e-06
 -1.62821966e-05  9.68532181e-07  3.93374584e-07  9.03175672e-07  1.68445742e-06
  1.93289453e-07  3.05862940e-06 -1.66991694e-06  1.74643162e-05 -6.12843308e-05
 -2.21556292e-06  1.28973911e-06 -1.31091111e-06  1.64276619e-06  8.43334616e-06
  1.37167822e-05  1.96309224e-06 -8.88419588e-07 -2.54989528e-06 -8.28387338e-07
 -2.82084823e-06  1.25579569e-05 -1.06657250e-04 -2.33795028e-05  5.74426513e-04
 -1.37042460e-06 -1.03927873e-04 -1.01481789e-05  3.22642251e-05  2.63797362e-05
 -1.06029907e-04  3.31849330e-07 -1.48623338e-06  1.09408477e-05 -1.19055020e-04
 -2.86464116e-06 -3.47980390e-06 -1.21333533e-06 -2.44801388e-05 -3.58100097e-05
 -4.43613243e-05 -8.77374207e-07 -9.17610090e-07 -3.27955030e-06 -1.98318456e-06
 -1.08075122e-06  3.71067391e-06 -1.59860190e-05  9.08804406e-05 -5.80710470e-04
 -9.22700651e-06  1.38167658e-05 -1.45672565e-05 -6.06901798e-05 -2.29096427e-04
  2.06124371e-05  3.36510941e-06 -8.67850164e-06 -6.49332811e-06  8.52991090e-06
 -4.45597934e-06  4.79333278e-07 -2.14314513e-06  2.00173787e-06  1.12121930e-04
  4.61513276e-06  1.20216600e-06 -5.66793549e-06 -2.39501777e-04  1.55432647e-04
 -1.65149987e-04 -8.77191460e-08  5.14079320e-06 -8.42342193e-07 -1.55445036e-06
  5.23931338e-07  4.99385784e-07 -1.93673778e-06 -9.71435010e-06  1.84566164e-04
 -1.63424570e-05  7.93609521e-06  1.11328500e-05  2.23841262e-04 -7.58896883e-05
  6.43091173e-05 -9.74720477e-06  2.39025537e-07 -5.68582857e-06 -3.76026911e-06
 -6.12303045e-06  4.10631645e-07 -1.88995007e-06  2.01858533e-05 -1.76023558e-04
  3.92183742e-06  4.45150919e-06 -2.84888174e-06  2.45195494e-05 -2.88241927e-04