Generated by Psi4
        SP                           UHF                     DEF2-MSVP
Number of atoms                            I               26
Charge                                     I               -1
Multiplicity                               I                1
Number of electrons                        I               98
Number of alpha electrons                  I               49
Number of beta electrons                   I               49
Number of basis functions                  I              221
Number of independent functions            I              221
Atomic numbers                             I   N=          26
           6           6           6           6           6           6
           6           8           1           1           1           1
           1           1           1           1           6           6
           6           8           8           1           1           1
           1           1
Nuclear charges                            R   N=          26
  6.00000000e+00  6.00000000e+00  6.00000000e+00  6.00000000e+00  6.00000000e+00
  6.00000000e+00  6.00000000e+00  8.00000000e+00  1.00000000e+00  1.00000000e+00
  1.00000000e+00  1.00000000e+00  1.00000000e+00  1.00000000e+00  1.00000000e+00
  1.00000000e+00  6.00000000e+00  6.00000000e+00  6.00000000e+00  8.00000000e+00
  8.00000000e+00  1.00000000e+00  1.00000000e+00  1.00000000e+00  1.00000000e+00
  1.00000000e+00
Current cartesian coordinates              R   N=          78
  1.69325348e+00 -7.93207628e+00 -1.65904620e+00  1.83876239e+00 -7.11432757e-01
 -1.50975783e+00  3.91935085e+00 -2.78685474e-01 -3.57714542e-02  1.11310755e+00
 -3.16807672e+00 -1.98974827e+00  2.49638708e+00 -5.21276039e+00 -1.04110575e+00
  5.30829955e+00 -2.23266229e+00  9.10981335e-01  4.60910089e+00 -4.70631379e+00
  4.21542268e-01  4.73949199e+00  2.08347218e+00  4.70675147e-01  8.22089732e-01
  8.55150201e-01 -2.31856061e+00 -5.30954174e-01 -3.53090414e+00 -3.14059148e+00
  6.96747909e+00 -1.86416569e+00  2.03914783e+00  6.21158864e+00  2.09858999e+00
  1.52892178e+00  3.16346040e+00 -9.26055375e+00 -1.09779754e+00  1.45703771e+00
 -8.04357012e+00 -3.69995041e+00  5.72592903e+00 -6.24077140e+00  1.15097655e+00
 -1.05108171e-01 -8.42958259e+00 -7.42874845e-01 -4.61654206e+00  2.20630438e+00
 -1.51044748e-01 -5.83163596e+00  2.96030510e+00 -2.66060104e+00 -4.53150438e+00
  4.35303326e+00  1.74057110e+00 -3.83986462e+00  3.91461680e+00  3.89674861e+00
 -5.19479825e+00  6.48842378e+00  1.11129230e+00 -5.78061335e+00  7.19089920e-01
  6.84214200e-01 -2.74949265e+00  1.39561187e+00 -4.17496132e-01 -7.46624905e+00
  4.16406065e+00 -2.29966335e+00 -6.48822130e+00  1.25855004e+00 -3.65754685e+00
 -4.48352424e+00  4.00515358e+00 -3.84881548e+00
Integer atomic weights                     I   N=          26
          12          12          12          12          12          12
          12          16           1           1           1           1
           1           1           1           1          12          12
          12          16          16           1           1           1
           1           1
Real atomic weights                        R   N=          26
  1.20000000e+01  1.20000000e+01  1.20000000e+01  1.20000000e+01  1.20000000e+01
  1.20000000e+01  1.20000000e+01  1.59949146e+01  1.00782503e+00  1.00782503e+00
  1.00782503e+00  1.00782503e+00  1.00782503e+00  1.00782503e+00  1.00782503e+00
  1.00782503e+00  1.20000000e+01  1.20000000e+01  1.20000000e+01  1.59949146e+01
  1.59949146e+01  1.00782503e+00  1.00782503e+00  1.00782503e+00  1.00782503e+00
  1.00782503e+00
Number of primitive shells                 I              221
Number of contracted shells                I              117
Pure/Cartesian d shells                    I                0
Pure/Cartesian f shells                    I                0
Highest angular momentum                   I                2
Largest degree of contraction              I                5
Shell types                                I   N=         117
           0           0           0           0           1           1
          -2           0           0           0           0           1
           1          -2           0           0           0           0
           1           1          -2           0           0           0
           0           1           1          -2           0           0
           0           0           1           1          -2           0
           0           0           0           1           1          -2
           0           0           0           0           1           1
          -2           0           0           0           0           1
           1          -2           0           0           0           0
           0           0           0           0           0           0
           0           0           0           0           0           0
           0           0           0           0           1           1
          -2           0           0           0           0           1
           1          -2           0           0           0           0
           1           1          -2           0           0           0
           0           1           1          -2           0           0
           0           0           1           1          -2           0
           0           0           0           0           0           0
           0           0           0
Number of primitives per shell             I   N=         117
           5           1           1           1           3           1
           1           5           1           1           1           3
           1           1           5           1           1           1
           3           1           1           5           1           1
           1           3           1           1           5           1
           1           1           3           1           1           5
           1           1           1           3           1           1
           5           1           1           1           3           1
           1           5           1           1           1           3
           1           1           3           1           3           1
           3           1           3           1           3           1
           3           1           3           1           3           1
           5           1           1           1           3           1
           1           5           1           1           1           3
           1           1           5           1           1           1
           3           1           1           5           1           1
           1           3           1           1           5           1
           1           1           3           1           1           3
           1           3           1           3           1           3
           1           3           1
Shell to atom map                          I   N=         117
           1           1           1           1           1           1
           1           2           2           2           2           2
           2           2           3           3           3           3
           3           3           3           4           4           4
           4           4           4           4           5           5
           5           5           5           5           5           6
           6           6           6           6           6           6
           7           7           7           7           7           7
           7           8           8           8           8           8
           8           8           9           9          10          10
          11          11          12          12          13          13
          14          14          15          15          16          16
          17          17          17          17          17          17
          17          18          18          18          18          18
          18          18          19          19          19          19
          19          19          19          20          20          20
          20          20          20          20          21          21
          21          21          21          21          21          22
          22          23          23          24          24          25
          25          26          26
Primitive exponents                        R   N=         221
  3.62386130e+03  5.44046210e+02  1.23743380e+02  3.47632090e+01  1.09333330e+01
  3.57447650e+00  5.74832450e-01  1.73036400e-01  9.44328190e+00  2.00179860e+00
  5.46297180e-01  1.52026840e-01  8.00000000e-01  3.62386130e+03  5.44046210e+02
  1.23743380e+02  3.47632090e+01  1.09333330e+01  3.57447650e+00  5.74832450e-01
  1.73036400e-01  9.44328190e+00  2.00179860e+00  5.46297180e-01  1.52026840e-01
  8.00000000e-01  3.62386130e+03  5.44046210e+02  1.23743380e+02  3.47632090e+01
  1.09333330e+01  3.57447650e+00  5.74832450e-01  1.73036400e-01  9.44328190e+00
  2.00179860e+00  5.46297180e-01  1.52026840e-01  8.00000000e-01  3.62386130e+03
  5.44046210e+02  1.23743380e+02  3.47632090e+01  1.09333330e+01  3.57447650e+00
  5.74832450e-01  1.73036400e-01  9.44328190e+00  2.00179860e+00  5.46297180e-01
  1.52026840e-01  8.00000000e-01  3.62386130e+03  5.44046210e+02  1.23743380e+02
  3.47632090e+01  1.09333330e+01  3.57447650e+00  5.74832450e-01  1.73036400e-01
  9.44328190e+00  2.00179860e+00  5.46297180e-01  1.52026840e-01  8.00000000e-01
  3.62386130e+03  5.44046210e+02  1.23743380e+02  3.47632090e+01  1.09333330e+01
  3.57447650e+00  5.74832450e-01  1.73036400e-01  9.44328190e+00  2.00179860e+00
  5.46297180e-01  1.52026840e-01  8.00000000e-01  3.62386130e+03  5.44046210e+02
  1.23743380e+02  3.47632090e+01  1.09333330e+01  3.57447650e+00  5.74832450e-01
  1.73036400e-01  9.44328190e+00  2.00179860e+00  5.46297180e-01  1.52026840e-01
  8.00000000e-01  6.77337470e+03  1.01679700e+03  2.31267380e+02  6.50084540e+01
  2.04998080e+01  6.71606640e+00  1.14715720e+00  3.34232510e-01  1.76942640e+01
  3.85360270e+00  1.04674650e+00  2.75860430e-01  8.00000000e-01  1.87354104e+01
  2.82565040e+00  6.40134700e-01  1.75607460e-01  1.87354104e+01  2.82565040e+00
  6.40134700e-01  1.75607460e-01  1.87354104e+01  2.82565040e+00  6.40134700e-01
  1.75607460e-01  1.87354104e+01  2.82565040e+00  6.40134700e-01  1.75607460e-01
  1.87354104e+01  2.82565040e+00  6.40134700e-01  1.75607460e-01  1.87354104e+01
  2.82565040e+00  6.40134700e-01  1.75607460e-01  1.87354104e+01  2.82565040e+00
  6.40134700e-01  1.75607460e-01  1.87354104e+01  2.82565040e+00  6.40134700e-01
  1.75607460e-01  3.62386130e+03  5.44046210e+02  1.23743380e+02  3.47632090e+01
  1.09333330e+01  3.57447650e+00  5.74832450e-01  1.73036400e-01  9.44328190e+00
  2.00179860e+00  5.46297180e-01  1.52026840e-01  8.00000000e-01  3.62386130e+03
  5.44046210e+02  1.23743380e+02  3.47632090e+01  1.09333330e+01  3.57447650e+00
  5.74832450e-01  1.73036400e-01  9.44328190e+00  2.00179860e+00  5.46297180e-01
  1.52026840e-01  8.00000000e-01  3.62386130e+03  5.44046210e+02  1.23743380e+02
  3.47632090e+01  1.09333330e+01  3.57447650e+00  5.74832450e-01  1.73036400e-01
  9.44328190e+00  2.00179860e+00  5.46297180e-01  1.52026840e-01  8.00000000e-01
  6.77337470e+03  1.01679700e+03  2.31267380e+02  6.50084540e+01  2.04998080e+01
  6.71606640e+00  1.14715720e+00  3.34232510e-01  1.76942640e+01  3.85360270e+00
  1.04674650e+00  2.75860430e-01  8.00000000e-01  6.77337470e+03  1.01679700e+03
  2.31267380e+02  6.50084540e+01  2.04998080e+01  6.71606640e+00  1.14715720e+00
  3.34232510e-01  1.76942640e+01  3.85360270e+00  1.04674650e+00  2.75860430e-01
  8.00000000e-01  1.87354104e+01  2.82565040e+00  6.40134700e-01  1.75607460e-01
  1.87354104e+01  2.82565040e+00  6.40134700e-01  1.75607460e-01  1.87354104e+01
  2.82565040e+00  6.40134700e-01  1.75607460e-01  1.87354104e+01  2.82565040e+00
  6.40134700e-01  1.75607460e-01  1.87354104e+01  2.82565040e+00  6.40134700e-01
  1.75607460e-01
Contraction coefficients                   R   N=         221
  2.26333124e-03  1.73452633e-02  8.60412011e-02  3.02222721e-01  6.89843648e-01
  1.00000000e+00  1.00000000e+00  1.00000000e+00  5.70590790e-02  3.13458733e-01
  7.59988164e-01  1.00000000e+00  1.00000000e+00  2.26333124e-03  1.73452633e-02
  8.60412011e-02  3.02222721e-01  6.89843648e-01  1.00000000e+00  1.00000000e+00
  1.00000000e+00  5.70590790e-02  3.13458733e-01  7.59988164e-01  1.00000000e+00
  1.00000000e+00  2.26333124e-03  1.73452633e-02  8.60412011e-02  3.02222721e-01
  6.89843648e-01  1.00000000e+00  1.00000000e+00  1.00000000e+00  5.70590790e-02
  3.13458733e-01  7.59988164e-01  1.00000000e+00  1.00000000e+00  2.26333124e-03
  1.73452633e-02  8.60412011e-02  3.02222721e-01  6.89843648e-01  1.00000000e+00
  1.00000000e+00  1.00000000e+00  5.70590790e-02  3.13458733e-01  7.59988164e-01
  1.00000000e+00  1.00000000e+00  2.26333124e-03  1.73452633e-02  8.60412011e-02
  3.02222721e-01  6.89843648e-01  1.00000000e+00  1.00000000e+00  1.00000000e+00
  5.70590790e-02  3.13458733e-01  7.59988164e-01  1.00000000e+00  1.00000000e+00
  2.26333124e-03  1.73452633e-02  8.60412011e-02  3.02222721e-01  6.89843648e-01
  1.00000000e+00  1.00000000e+00  1.00000000e+00  5.70590790e-02  3.13458733e-01
  7.59988164e-01  1.00000000e+00  1.00000000e+00  2.26333124e-03  1.73452633e-02
  8.60412011e-02  3.02222721e-01  6.89843648e-01  1.00000000e+00  1.00000000e+00
  1.00000000e+00  5.70590790e-02  3.13458733e-01  7.59988164e-01  1.00000000e+00
  1.00000000e+00  2.18470467e-03  1.67609392e-02  8.35437088e-02  2.97707247e-01
  6.95621078e-01  1.00000000e+00  1.00000000e+00  1.00000000e+00  6.27665555e-02
  3.33746549e-01  7.40926208e-01  1.00000000e+00  1.00000000e+00  3.34854847e-02
  2.34721870e-01  8.13770283e-01  1.00000000e+00  3.34854847e-02  2.34721870e-01
  8.13770283e-01  1.00000000e+00  3.34854847e-02  2.34721870e-01  8.13770283e-01
  1.00000000e+00  3.34854847e-02  2.34721870e-01  8.13770283e-01  1.00000000e+00
  3.34854847e-02  2.34721870e-01  8.13770283e-01  1.00000000e+00  3.34854847e-02
  2.34721870e-01  8.13770283e-01  1.00000000e+00  3.34854847e-02  2.34721870e-01
  8.13770283e-01  1.00000000e+00  3.34854847e-02  2.34721870e-01  8.13770283e-01
  1.00000000e+00  2.26333124e-03  1.73452633e-02  8.60412011e-02  3.02222721e-01
  6.89843648e-01  1.00000000e+00  1.00000000e+00  1.00000000e+00  5.70590790e-02
  3.13458733e-01  7.59988164e-01  1.00000000e+00  1.00000000e+00  2.26333124e-03
  1.73452633e-02  8.60412011e-02  3.02222721e-01  6.89843648e-01  1.00000000e+00
  1.00000000e+00  1.00000000e+00  5.70590790e-02  3.13458733e-01  7.59988164e-01
  1.00000000e+00  1.00000000e+00  2.26333124e-03  1.73452633e-02  8.60412011e-02
  3.02222721e-01  6.89843648e-01  1.00000000e+00  1.00000000e+00  1.00000000e+00
  5.70590790e-02  3.13458733e-01  7.59988164e-01  1.00000000e+00  1.00000000e+00
  2.18470467e-03  1.67609392e-02  8.35437088e-02  2.97707247e-01  6.95621078e-01
  1.00000000e+00  1.00000000e+00  1.00000000e+00  6.27665555e-02  3.33746549e-01
  7.40926208e-01  1.00000000e+00  1.00000000e+00  2.18470467e-03  1.67609392e-02
  8.35437088e-02  2.97707247e-01  6.95621078e-01  1.00000000e+00  1.00000000e+00
  1.00000000e+00  6.27665555e-02  3.33746549e-01  7.40926208e-01  1.00000000e+00
  1.00000000e+00  3.34854847e-02  2.34721870e-01  8.13770283e-01  1.00000000e+00
  3.34854847e-02  2.34721870e-01  8.13770283e-01  1.00000000e+00  3.34854847e-02
  2.34721870e-01  8.13770283e-01  1.00000000e+00  3.34854847e-02  2.34721870e-01
  8.13770283e-01  1.00000000e+00  3.34854847e-02  2.34721870e-01  8.13770283e-01
  1.00000000e+00
Coordinates of each shell                  R   N=         351
  1.69325348e+00 -7.93207628e+00 -1.65904620e+00  1.69325348e+00 -7.93207628e+00
 -1.65904620e+00  1.69325348e+00 -7.93207628e+00 -1.65904620e+00  1.69325348e+00
 -7.93207628e+00 -1.65904620e+00  1.69325348e+00 -7.93207628e+00 -1.65904620e+00
  1.69325348e+00 -7.93207628e+00 -1.65904620e+00  1.69325348e+00 -7.93207628e+00
 -1.65904620e+00  1.83876239e+00 -7.11432757e-01 -1.50975783e+00  1.83876239e+00
 -7.11432757e-01 -1.50975783e+00  1.83876239e+00 -7.11432757e-01 -1.50975783e+00
  1.83876239e+00 -7.11432757e-01 -1.50975783e+00  1.83876239e+00 -7.11432757e-01
 -1.50975783e+00  1.83876239e+00 -7.11432757e-01 -1.50975783e+00  1.83876239e+00
 -7.11432757e-01 -1.50975783e+00  3.91935085e+00 -2.78685474e-01 -3.57714542e-02
  3.91935085e+00 -2.78685474e-01 -3.57714542e-02  3.91935085e+00 -2.78685474e-01
 -3.57714542e-02  3.91935085e+00 -2.78685474e-01 -3.57714542e-02  3.91935085e+00
 -2.78685474e-01 -3.57714542e-02  3.91935085e+00 -2.78685474e-01 -3.57714542e-02
  3.91935085e+00 -2.78685474e-01 -3.57714542e-02  1.11310755e+00 -3.16807672e+00
 -1.98974827e+00  1.11310755e+00 -3.16807672e+00 -1.98974827e+00  1.11310755e+00
 -3.16807672e+00 -1.98974827e+00  1.11310755e+00 -3.16807672e+00 -1.98974827e+00
  1.11310755e+00 -3.16807672e+00 -1.98974827e+00  1.11310755e+00 -3.16807672e+00
 -1.98974827e+00  1.11310755e+00 -3.16807672e+00 -1.98974827e+00  2.49638708e+00
 -5.21276039e+00 -1.04110575e+00  2.49638708e+00 -5.21276039e+00 -1.04110575e+00
  2.49638708e+00 -5.21276039e+00 -1.04110575e+00  2.49638708e+00 -5.21276039e+00
 -1.04110575e+00  2.49638708e+00 -5.21276039e+00 -1.04110575e+00  2.49638708e+00
 -5.21276039e+00 -1.04110575e+00  2.49638708e+00 -5.21276039e+00 -1.04110575e+00
  5.30829955e+00 -2.23266229e+00  9.10981335e-01  5.30829955e+00 -2.23266229e+00
  9.10981335e-01  5.30829955e+00 -2.23266229e+00  9.10981335e-01  5.30829955e+00
 -2.23266229e+00  9.10981335e-01  5.30829955e+00 -2.23266229e+00  9.10981335e-01
  5.30829955e+00 -2.23266229e+00  9.10981335e-01  5.30829955e+00 -2.23266229e+00
  9.10981335e-01  4.60910089e+00 -4.70631379e+00  4.21542268e-01  4.60910089e+00
 -4.70631379e+00  4.21542268e-01  4.60910089e+00 -4.70631379e+00  4.21542268e-01
  4.60910089e+00 -4.70631379e+00  4.21542268e-01  4.60910089e+00 -4.70631379e+00
  4.21542268e-01  4.60910089e+00 -4.70631379e+00  4.21542268e-01  4.60910089e+00
 -4.70631379e+00  4.21542268e-01  4.73949199e+00  2.08347218e+00  4.70675147e-01
  4.73949199e+00  2.08347218e+00  4.70675147e-01  4.73949199e+00  2.08347218e+00
  4.70675147e-01  4.73949199e+00  2.08347218e+00  4.70675147e-01  4.73949199e+00
  2.08347218e+00  4.70675147e-01  4.73949199e+00  2.08347218e+00  4.70675147e-01
  4.73949199e+00  2.08347218e+00  4.70675147e-01  8.22089732e-01  8.55150201e-01
 -2.31856061e+00  8.22089732e-01  8.55150201e-01 -2.31856061e+00 -5.30954174e-01
 -3.53090414e+00 -3.14059148e+00 -5.30954174e-01 -3.53090414e+00 -3.14059148e+00
  6.96747909e+00 -1.86416569e+00  2.03914783e+00  6.96747909e+00 -1.86416569e+00
  2.03914783e+00  6.21158864e+00  2.09858999e+00  1.52892178e+00  6.21158864e+00
  2.09858999e+00  1.52892178e+00  3.16346040e+00 -9.26055375e+00 -1.09779754e+00
  3.16346040e+00 -9.26055375e+00 -1.09779754e+00  1.45703771e+00 -8.04357012e+00
 -3.69995041e+00  1.45703771e+00 -8.04357012e+00 -3.69995041e+00  5.72592903e+00
 -6.24077140e+00  1.15097655e+00  5.72592903e+00 -6.24077140e+00  1.15097655e+00
 -1.05108171e-01 -8.42958259e+00 -7.42874845e-01 -1.05108171e-01 -8.42958259e+00
 -7.42874845e-01 -4.61654206e+00  2.20630438e+00 -1.51044748e-01 -4.61654206e+00
  2.20630438e+00 -1.51044748e-01 -4.61654206e+00  2.20630438e+00 -1.51044748e-01
 -4.61654206e+00  2.20630438e+00 -1.51044748e-01 -4.61654206e+00  2.20630438e+00
 -1.51044748e-01 -4.61654206e+00  2.20630438e+00 -1.51044748e-01 -4.61654206e+00
  2.20630438e+00 -1.51044748e-01 -5.83163596e+00  2.96030510e+00 -2.66060104e+00
 -5.83163596e+00  2.96030510e+00 -2.66060104e+00 -5.83163596e+00  2.96030510e+00
 -2.66060104e+00 -5.83163596e+00  2.96030510e+00 -2.66060104e+00 -5.83163596e+00
  2.96030510e+00 -2.66060104e+00 -5.83163596e+00  2.96030510e+00 -2.66060104e+00
 -5.83163596e+00  2.96030510e+00 -2.66060104e+00 -4.53150438e+00  4.35303326e+00
  1.74057110e+00 -4.53150438e+00  4.35303326e+00  1.74057110e+00 -4.53150438e+00
  4.35303326e+00  1.74057110e+00 -4.53150438e+00  4.35303326e+00  1.74057110e+00
 -4.53150438e+00  4.35303326e+00  1.74057110e+00 -4.53150438e+00  4.35303326e+00
  1.74057110e+00 -4.53150438e+00  4.35303326e+00  1.74057110e+00 -3.83986462e+00
  3.91461680e+00  3.89674861e+00 -3.83986462e+00  3.91461680e+00  3.89674861e+00
 -3.83986462e+00  3.91461680e+00  3.89674861e+00 -3.83986462e+00  3.91461680e+00
  3.89674861e+00 -3.83986462e+00  3.91461680e+00  3.89674861e+00 -3.83986462e+00
  3.91461680e+00  3.89674861e+00 -3.83986462e+00  3.91461680e+00  3.89674861e+00
 -5.19479825e+00  6.48842378e+00  1.11129230e+00 -5.19479825e+00  6.48842378e+00
  1.11129230e+00 -5.19479825e+00  6.48842378e+00  1.11129230e+00 -5.19479825e+00
  6.48842378e+00  1.11129230e+00 -5.19479825e+00  6.48842378e+00  1.11129230e+00
 -5.19479825e+00  6.48842378e+00  1.11129230e+00 -5.19479825e+00  6.48842378e+00
  1.11129230e+00 -5.78061335e+00  7.19089920e-01  6.84214200e-01 -5.78061335e+00
  7.19089920e-01  6.84214200e-01 -2.74949265e+00  1.39561187e+00 -4.17496132e-01
 -2.74949265e+00  1.39561187e+00 -4.17496132e-01 -7.46624905e+00  4.16406065e+00
 -2.29966335e+00 -7.46624905e+00  4.16406065e+00 -2.29966335e+00 -6.48822130e+00
  1.25855004e+00 -3.65754685e+00 -6.48822130e+00  1.25855004e+00 -3.65754685e+00
 -4.48352424e+00  4.00515358e+00 -3.84881548e+00 -4.48352424e+00  4.00515358e+00
 -3.84881548e+00
Total Energy                               R     -6.126758712291237e+02
Alpha Orbital Energies                     R   N=         221
 -1.86915355e+01 -1.84601061e+01 -1.84513526e+01 -9.85112675e+00 -9.80803548e+00
 -9.80686168e+00 -9.79814994e+00 -9.79644371e+00 -9.79620987e+00 -9.78862220e+00
 -9.72571296e+00 -9.71223876e+00 -9.69318741e+00 -8.81690051e-01 -7.11543782e-01
 -6.90216903e-01 -6.08771645e-01 -6.06631802e-01 -5.87748173e-01 -5.30629143e-01
 -5.10720047e-01 -4.73646585e-01 -4.43665603e-01 -4.06414078e-01 -3.87635166e-01
 -3.43144214e-01 -3.26098754e-01 -2.99987120e-01 -2.92923141e-01 -2.85440903e-01
 -2.67114507e-01 -2.65666245e-01 -2.41249538e-01 -2.32629563e-01 -2.27793317e-01
 -2.16164029e-01 -1.95208134e-01 -1.92603265e-01 -1.75809192e-01 -1.54807575e-01
 -1.46161840e-01 -1.33902433e-01 -1.24706643e-01 -9.64415559e-02 -9.40607907e-02
 -9.05228639e-02  3.53102681e-02  3.69418617e-02  5.89187371e-02  7.09354814e-02
  8.02337777e-02  1.42284585e-01  1.65129779e-01  1.91586163e-01  2.07758152e-01
  2.11508208e-01  2.29106688e-01  2.38373090e-01  2.52461795e-01  2.55963204e-01
  2.61974328e-01  2.70954650e-01  2.87140837e-01  3.03161708e-01  3.11506528e-01
  3.15548727e-01  3.32221260e-01  3.46377888e-01  3.57636422e-01  3.63682703e-01
  3.93919537e-01  3.97856379e-01  4.27238401e-01  4.33897935e-01  4.99874360e-01
  5.04203082e-01  5.14845850e-01  5.17547256e-01  5.41749952e-01  5.57675553e-01
  5.61267356e-01  5.73691489e-01  5.92797087e-01  6.02696378e-01  6.07848620e-01
  6.17563051e-01  6.25998239e-01  6.38492177e-01  6.44740361e-01  6.46583356e-01
  6.70699701e-01  6.79259345e-01  6.90023879e-01  6.94134663e-01  7.11693775e-01
  7.21352063e-01  7.28276687e-01  7.41577195e-01  7.64674077e-01  7.69212204e-01
  7.83658007e-01  7.94586794e-01  8.18683187e-01  8.58229252e-01  8.65152334e-01
  9.13387672e-01  9.41789991e-01  9.49595833e-01  9.56262258e-01  9.70183208e-01
  9.77881610e-01  9.96501621e-01  1.00726936e+00  1.01540230e+00  1.02920940e+00
  1.03852711e+00  1.04401263e+00  1.05839249e+00  1.06475281e+00  1.08842748e+00
  1.09335452e+00  1.10638770e+00  1.11113202e+00  1.12336736e+00  1.12706442e+00
  1.13739603e+00  1.17454383e+00  1.17615102e+00  1.20729908e+00  1.22048688e+00
  1.24100154e+00  1.27410656e+00  1.30053747e+00  1.31002566e+00  1.31994077e+00
  1.32935568e+00  1.35902959e+00  1.38719394e+00  1.41181297e+00  1.42641977e+00
  1.43117816e+00  1.48489977e+00  1.50312538e+00  1.52435992e+00  1.53808836e+00
  1.55912991e+00  1.60610541e+00  1.65273330e+00  1.67609831e+00  1.75774468e+00
  1.75984466e+00  1.80304145e+00  1.82298219e+00  1.86658149e+00  1.87064419e+00
  1.88034647e+00  1.89177981e+00  1.90732014e+00  1.92874672e+00  1.97790510e+00
  1.99013532e+00  2.01214571e+00  2.02394528e+00  2.02611335e+00  2.04021097e+00
  2.04756968e+00  2.07699330e+00  2.07920008e+00  2.09623335e+00  2.14117807e+00
  2.15376354e+00  2.17837080e+00  2.18205136e+00  2.19020933e+00  2.19533691e+00
  2.24499017e+00  2.26014408e+00  2.26632886e+00  2.27319762e+00  2.28595459e+00
  2.31295391e+00  2.32718678e+00  2.35184925e+00  2.35873061e+00  2.38990572e+00
  2.40211803e+00  2.43416058e+00  2.44045058e+00  2.53389933e+00  2.57601408e+00
  2.59600979e+00  2.60723660e+00  2.61065324e+00  2.66003935e+00  2.69970771e+00
  2.70975373e+00  2.71410613e+00  2.76935580e+00  2.84734170e+00  2.88704596e+00
  2.88943805e+00  2.96262885e+00  2.98579582e+00  3.02103406e+00  3.14536866e+00
  3.15255868e+00  3.35900436e+00  3.44551984e+00  1.28860477e+01  1.33136907e+01
  1.33386616e+01  1.33799941e+01  1.34896961e+01  1.36749914e+01  1.38146154e+01
  1.38429239e+01  1.38997510e+01  1.42159546e+01  2.51681156e+01  2.52363725e+01
  2.54314191e+01
Alpha MO coefficients                      R   N=       48841
 -4.17258054e-06  1.85202637e-05 -1.34437189e-04  1.62382490e-03  7.64321900e-06
  9.42248316e-05  2.90407695e-05  5.69769734e-04  1.28420569e-04  1.70134389e-04
  1.01574743e-06  1.00106698e-05  1.45293281e-05  1.06104521e-05  1.76034110e-05
 -5.05613446e-05  2.20417650e-04 -1.21613244e-03  1.30430849e-02  8.87542384e-05
  6.28683558e-05  8.11698051e-05  3.79122724e-03 -1.08740311e-02  3.02028295e-03
 -3.41698446e-05 -8.71979467e-06 -2.50106577e-04 -1.01519725e-04 -3.45512548e-04
  7.47077793e-05 -4.04808685e-04  1.77439777e-03  3.10404877e-03  3.70260935e-04
  1.08454865e-03  2.33276591e-04  1.08165817e-02  1.98008063e-02  7.08568275e-03
 -3.22182117e-04  4.16206126e-04  2.88378014e-06 -2.03423330e-04  6.99965850e-05
  1.98894633e-06 -9.58611523e-06  2.37112480e-04 -9.33726185e-03 -2.44206121e-04
 -3.11648766e-04 -1.62279533e-04 -1.74588380e-03 -2.03892898e-03 -1.27068745e-03
 -1.43946443e-05  2.81280071e-05 -1.57468969e-05 -1.23109430e-05 -2.12882544e-05
  7.69742179e-07 -2.45229150e-06 -1.20852894e-05  4.50523120e-04 -3.80037356e-05
 -1.35161658e-04 -4.79997936e-05 -4.23836784e-04  2.93293699e-03 -1.13341436e-04
 -2.44062538e-05  6.00648260e-05 -3.78976728e-05  5.61087352e-06 -5.13540785e-05
 -3.72338735e-05  1.62493516e-04 -6.93455856e-04  5.81885467e-03 -1.84762366e-05
 -7.84294868e-05 -1.54563742e-05 -6.44251331e-03 -8.76727007e-03 -4.27340161e-03
  9.40077082e-05  2.14359923e-04  1.09767201e-04  3.72723712e-04  1.58911534e-04
  7.50193201e-07 -3.19929471e-06  1.02770682e-04 -7.61156753e-03  7.51887379e-05
 -3.27068812e-04  4.17657022e-05 -1.47597303e-03 -3.20556852e-03 -1.09135780e-03
 -3.48269203e-05  6.94149509e-05  1.43057434e-05 -8.72942665e-06  2.66036800e-05
  6.35787698e-01  4.22927898e-01  5.40947252e-02 -3.48853355e-02  4.49553155e-04
 -1.60872824e-03  3.74662307e-04  8.44662257e-04  7.50797165e-03  2.84911882e-04
  3.77554713e-04 -2.63593422e-04 -2.84908951e-04  4.68151730e-04 -4.78907632e-04
  3.68764082e-05  4.68622909e-03  1.88822460e-04 -1.42414210e-04  1.12823375e-04
  3.83448491e-03  1.55616497e-03  1.55525975e-04 -1.48952914e-05 -5.06350737e-04
 -1.37221866e-05 -1.08047581e-04  1.83207203e-04  2.24518792e-04 -1.51214360e-05
  7.29835368e-05  2.58123726e-06 -1.15223531e-05  7.93223431e-05 -3.87779323e-04
 -2.28829160e-07  1.73005995e-05 -1.94775545e-05 -2.45517081e-04 -2.47500086e-05
  1.81530922e-04  8.61887527e-06 -1.50166738e-06  3.16102605e-06 -1.07053977e-05
  2.10281337e-05 -5.85511333e-08  4.31739117e-07 -1.41960370e-05  2.08457366e-04
  2.72027232e-05 -1.72960761e-05  1.40514949e-05  1.35105691e-06  7.77712000e-05
  4.59824602e-06 -7.11481421e-06  7.05255638e-06  1.30096288e-06  3.61757726e-06
 -4.28302244e-06  7.82009062e-07 -3.27132682e-06  1.59587666e-05 -4.06242721e-05
  6.77655773e-06 -5.65509408e-06 -1.02358494e-05 -2.53435120e-06  7.45751073e-05
 -9.75867068e-05 -7.83939459e-07 -7.03004031e-06 -1.96367483e-07 -8.82983082e-07
 -4.12231949e-06 -4.78265844e-06  2.80667473e-06 -2.80800250e-05  9.50796100e-05
  3.00393109e-06  5.36121237e-07 -2.39553313e-06 -1.68783334e-05 -3.18667474e-06
 -1.62799927e-05  9.68377903e-07  3.93237427e-07  9.03142295e-07  1.68410670e-06
  1.93248142e-07  3.02659429e-06 -1.69095419e-06  1.74598894e-05 -6.12772384e-05
 -2.21557327e-06  1.28969352e-06 -1.31089620e-06  1.64330685e-06  8.43319881e-06
  1.37162190e-05  1.96306402e-06 -8.88313456e-07 -2.54962384e-06 -8.28237672e-07
 -2.82070445e-06  1.25575919e-05 -1.06650352e-04 -2.33787893e-05  5.74395215e-04
 -1.37018450e-06 -1.03916922e-04 -1.01470947e-05  3.22614564e-05  2.63770222e-05
 -1.06022172e-04  3.32056573e-07 -1.48721924e-06  1.09500824e-05 -1.19177210e-04
 -2.86810559e-06 -3.48672883e-06 -1.21277806e-06 -2.45194927e-05 -3.58291966e-05
 -4.44176202e-05 -8.76771335e-07 -9.18842662e-07 -3.28395309e-06 -1.98662691e-06
 -1.08312128e-06  3.71593893e-06 -1.60087672e-05  9.09901363e-05 -5.81005230e-04
 -9.28108602e-06  1.38354396e-05 -1.45470485e-05 -6.03369902e-05 -2.29180459e-04
  2.06107858e-05  3.37173569e-06 -8.67330693e-06 -6.49710140e-06  8.55643236e-06
 -4.45610411e-06  4.81268811e-07 -2.15176736e-06  2.06058047e-06  1.11675745e-04
  4.63537337e-06  1.20112502e-06 -5.68148524e-06 -2.39698880e-04  1.55788969e-04
 -1.65072739e-04 -9.35984081e-08  5.13103012e-06 -8.42027222e-07 -1.55443424e-06
  5.27549030e-07  4.99147083e-07 -1.93533300e-06 -9.75253201e-06  1.84924615e-04
 -1.63610345e-05  7.94658409e-06  1.11501166e-05  2.23939863e-04 -7.58252189e-05
  6.43734540e-05 -9.75579358e-06  2.46999645e-07 -5.68263201e-06 -3.77185797e-06
 -6.13872086e-06  4.10556230e-07 -1.88971439e-06  2.01925328e-05 -1.76023660e-04
  3.93042580e-06  4.45762738e-06 -2.85097815e-06  2.45797663e-05 -2.88488874e-04